Protein in INSANE! Membrane UpperLeaflet>POPC:CHOL=75.0:25.0 LowerLeaflet>POPC:CHOL=75.0:25.0 t=   0.00000 step= 0
 6144
  345POPC   NC3    1   2.001   5.594   7.898
  345POPC   PO4    2   1.633   5.403   7.872
  345POPC   GL1    3   1.623   5.761   7.659
  345POPC   GL2    4   1.695   5.618   7.420
  345POPC   C1A    5   1.481   6.073   7.341
  345POPC   D2A    6   1.582   6.360   6.943
  345POPC   C3A    7   1.530   6.291   6.515
  345POPC   C4A    8   1.586   6.439   6.079
  345POPC   C1B    9   1.867   5.950   7.071
  345POPC   C2B   10   2.084   6.230   6.718
  345POPC   C3B   11   2.035   6.400   6.315
  345POPC   C4B   12   2.242   6.451   5.883
  346POPC   NC3   13   4.466   5.543   7.790
  346POPC   PO4   14   4.369   5.158   7.734
  346POPC   GL1   15   4.285   5.122   7.383
  346POPC   GL2   16   4.347   5.347   7.237
  346POPC   C1A   17   4.459   4.774   7.203
  346POPC   D2A   18   4.933   4.658   7.089
  346POPC   C3A   19   5.233   4.805   6.769
  346POPC   C4A   20   5.651   4.986   6.507
  346POPC   C1B   21   4.753   5.176   7.044
  346POPC   C2B   22   4.821   5.032   6.633
  346POPC   C3B   23   5.069   5.037   6.254
  346POPC   C4B   24   5.498   4.931   6.069
  347POPC   NC3   25   8.267   9.905   8.047
  347POPC   PO4   26   8.025   9.690   7.864
  347POPC   GL1   27   7.925   9.902   7.604
  347POPC   GL2   28   7.821  10.135   7.638
  347POPC   C1A   29   8.078   9.854   7.192
  347POPC   D2A   30   8.174   9.634   6.763
  347POPC   C3A   31   7.915   9.912   6.499
  347POPC   C4A   32   8.152  10.038   6.083
  347POPC   C1B   33   7.901  10.385   7.205
  347POPC   C2B   34   8.108  10.729   6.996
  347POPC   C3B   35   8.187  10.955   6.641
  347POPC   C4B   36   7.923  11.042   6.288
  348POPC   NC3   37  10.469   6.509   8.426
  348POPC   PO4   38  10.146   6.710   8.425
  348POPC   GL1   39  10.018   6.686   8.044
  348POPC   GL2   40   9.793   6.605   8.015
  348POPC   C1A   41  10.201   6.924   7.710
  348POPC   D2A   42  10.168   7.143   7.274
  348POPC   C3A   43  10.162   7.545   7.115
  348POPC   C4A   44   9.834   7.844   7.167
  348POPC   C1B   45   9.948   6.329   7.680
  348POPC   C2B   46   9.918   6.112   7.281
  348POPC   C3B   47   9.741   5.886   6.873
  348POPC   C4B   48   9.832   5.503   6.779
  349POPC   NC3   49   6.909   3.207   8.057
  349POPC   PO4   50   6.573   3.310   8.136
  349POPC   GL1   51   6.698   3.349   7.725
  349POPC   GL2   52   6.721   3.112   7.502
  349POPC   C1A   53   6.571   3.638   7.363
  349POPC   D2A   54   6.159   3.798   7.226
  349POPC   C3A   55   6.014   3.747   6.787
  349POPC   C4A   56   6.180   3.637   6.416
  349POPC   C1B   57   6.591   3.144   7.118
  349POPC   C2B   58   6.280   3.260   6.799
  349POPC   C3B   59   6.047   3.137   6.446
  349POPC   C4B   60   5.868   2.859   6.155
  350POPC   NC3   61   6.522  12.965   8.441
  350POPC   PO4   62   6.613  13.328   8.363
  350POPC   GL1   63   6.569  13.200   8.069
  350POPC   GL2   64   6.503  13.297   7.765
  350POPC   C1A   65   6.798  12.875   7.887
  350POPC   D2A   66   7.107  12.850   7.553
  350POPC   C3A   67   7.491  12.582   7.435
  350POPC   C4A   68   7.866  12.344   7.381
  350POPC   C1B   69   6.632  12.983   7.425
  350POPC   C2B   70   6.644  12.967   6.983
  350POPC   C3B   71   6.696  12.679   6.618
  350POPC   C4B   72   6.974  12.396   6.347
  351POPC   NC3   73   4.182   2.516   8.316
  351POPC   PO4   74   4.432   2.343   8.092
  351POPC   GL1   75   4.211   2.246   7.765
  351POPC   GL2   76   4.436   2.327   7.608
  351POPC   C1A   77   4.243   1.953   7.397
  351POPC   D2A   78   4.072   1.695   7.069
  351POPC   C3A   79   4.164   1.715   6.651
  351POPC   C4A   80   4.379   1.834   6.292
  351POPC   C1B   81   4.423   2.491   7.139
  351POPC   C2B   82   4.354   2.693   6.747
  351POPC   C3B   83   4.123   2.769   6.360
  351POPC   C4B   84   4.369   2.953   6.048
  352POPC   NC3   85   5.421   1.536   8.106
  352POPC   PO4   86   5.425   1.313   7.765
  352POPC   GL1   87   5.758   1.245   7.680
  352POPC   GL2   88   5.913   1.522   7.710
  352POPC   C1A   89   5.992   1.304   7.296
  352POPC   D2A   90   5.991   0.864   7.078
  352POPC   C3A   91   6.311   0.679   7.303
  352POPC   C4A   92   6.390   0.587   7.791
  352POPC   C1B   93   6.177   1.816   7.414
  352POPC   C2B   94   6.100   1.913   6.971
  352POPC   C3B   95   6.182   1.881   6.535
  352POPC   C4B   96   6.477   2.094   6.193
  353POPC   NC3   97  11.542   3.770   8.161
  353POPC   PO4   98  11.951   3.882   8.064
  353POPC   GL1   99  11.675   3.897   7.730
  353POPC   GL2  100  11.498   4.142   7.691
  353POPC   C1A  101  11.627   3.813   7.291
  353POPC   D2A  102  11.479   3.720   6.854
  353POPC   C3A  103  11.087   3.973   6.782
  353POPC   C4A  104  10.801   4.236   6.697
  353POPC   C1B  105  11.100   4.245   7.481
  353POPC   C2B  106  10.879   4.491   7.170
  353POPC   C3B  107  10.777   4.791   6.788
  353POPC   C4B  108  10.616   5.094   6.485
  354POPC   NC3  109   8.902   8.545   7.982
  354POPC   PO4  110   8.568   8.299   8.022
  354POPC   GL1  111   8.649   8.130   7.681
  354POPC   GL2  112   8.432   7.981   7.451
  354POPC   C1A  113   8.969   7.984   7.415
  354POPC   D2A  114   9.329   8.163   7.196
  354POPC   C3A  115   9.701   8.307   7.398
  354POPC   C4A  116   9.915   8.700   7.421
  354POPC   C1B  117   8.409   7.885   6.996
  354POPC   C2B  118   8.331   7.869   6.563
  354POPC   C3B  119   8.439   7.942   6.077
  354POPC   C4B  120   8.482   7.768   5.665
  355POPC   NC3  121  10.931   5.727   8.439
  355POPC   PO4  122  11.155   5.511   8.168
  355POPC   GL1  123  11.137   5.584   7.819
  355POPC   GL2  124  11.304   5.793   7.773
  355POPC   C1A  125  11.143   5.423   7.385
  355POPC   D2A  126  11.359   5.580   7.045
  355POPC   C3A  127  11.133   5.736   6.650
  355POPC   C4A  128  10.914   5.966   6.325
  355POPC   C1B  129  11.242   5.979   7.318
  355POPC   C2B  130  11.411   6.060   6.893
  355POPC   C3B  131  11.532   6.342   6.546
  355POPC   C4B  132  11.679   6.474   6.117
  356POPC   NC3  133   1.282   8.368   8.180
  356POPC   PO4  134   1.292   8.751   8.107
  356POPC   GL1  135   1.315   8.571   7.744
  356POPC   GL2  136   1.198   8.647   7.515
  356POPC   C1A  137   1.503   8.273   7.409
  356POPC   D2A  138   1.605   8.043   7.008
  356POPC   C3A  139   1.575   7.925   6.554
  356POPC   C4A  140   1.595   8.139   6.187
  356POPC   C1B  141   1.256   8.999   7.235
  356POPC   C2B  142   1.182   9.095   6.799
  356POPC   C3B  143   1.159   9.219   6.351
  356POPC   C4B  144   1.238   9.095   5.913
  357POPC   NC3  145   6.403   4.111   7.694
  357POPC   PO4  146   6.686   4.354   7.813
  357POPC   GL1  147   6.782   4.269   7.463
  357POPC   GL2  148   6.880   3.976   7.501
  357POPC   C1A  149   7.026   4.506   7.198
  357POPC   D2A  150   7.259   4.610   6.800
  357POPC   C3A  151   7.329   4.961   6.513
  357POPC   C4A  152   7.183   5.406   6.521
  357POPC   C1B  153   7.050   4.007   7.039
  357POPC   C2B  154   7.303   3.769   6.715
  357POPC   C3B  155   7.397   3.802   6.236
  357POPC   C4B  156   7.432   3.704   5.807
  358POPC   NC3  157   2.308   8.204   8.281
  358POPC   PO4  158   2.527   8.283   7.923
  358POPC   GL1  159   2.749   8.548   7.521
  358POPC   GL2  160   2.997   8.390   7.475
  358POPC   C1A  161   2.796   9.021   7.377
  358POPC   D2A  162   2.745   9.228   6.960
  358POPC   C3A  163   3.043   9.225   6.649
  358POPC   C4A  164   3.093   9.210   6.201
  358POPC   C1B  165   2.850   8.166   7.100
  358POPC   C2B  166   2.904   7.997   6.704
  358POPC   C3B  167   2.984   7.694   6.406
  358POPC   C4B  168   3.163   7.549   6.003
  359POPC   NC3  169   0.923   9.083   8.168
  359POPC   PO4  170   0.932   9.469   8.065
  359POPC   GL1  171   0.717   9.416   7.657
  359POPC   GL2  172   0.702   9.121   7.711
  359POPC   C1A  173   0.678   9.667   7.303
  359POPC   D2A  174   0.716   9.786   6.859
  359POPC   C3A  175   0.489  10.184   6.752
  359POPC   C4A  176   0.616  10.402   6.406
  359POPC   C1B  177   0.761   9.147   7.206
  359POPC   C2B  178   0.727   9.296   6.784
  359POPC   C3B  179   0.682   9.561   6.410
  359POPC   C4B  180   0.574   9.960   6.189
  360POPC   NC3  181   1.072   2.645   7.994
  360POPC   PO4  182   1.190   2.484   7.663
  360POPC   GL1  183   1.113   2.542   7.359
  360POPC   GL2  184   0.809   2.507   7.303
  360POPC   C1A  185   1.224   2.602   6.921
  360POPC   D2A  186   1.240   2.638   6.495
  360POPC   C3A  187   1.107   2.954   6.202
  360POPC   C4A  188   0.812   3.292   6.139
  360POPC   C1B  189   0.726   2.434   6.883
  360POPC   C2B  190   0.747   2.473   6.432
  360POPC   C3B  191   0.650   2.798   6.188
  360POPC   C4B  192   0.822   2.836   5.778
  361POPC   NC3  193   1.736   8.571   7.898
  361POPC   PO4  194   2.060   8.580   8.062
  361POPC   GL1  195   2.206   8.413   7.676
  361POPC   GL2  196   1.966   8.399   7.465
  361POPC   C1A  197   2.452   8.394   7.292
  361POPC   D2A  198   2.763   8.657   7.082
  361POPC   C3A  199   2.867   8.681   6.631
  361POPC   C4A  200   2.867   8.743   6.161
  361POPC   C1B  201   1.975   8.494   7.014
  361POPC   C2B  202   2.250   8.622   6.634
  361POPC   C3B  203   2.405   8.561   6.231
  361POPC   C4B  204   2.590   8.418   5.842
  362POPC   NC3  205   6.799  10.059   8.122
  362POPC   PO4  206   7.005   9.796   7.894
  362POPC   GL1  207   7.076   9.893   7.539
  362POPC   GL2  208   7.098   9.615   7.422
  362POPC   C1A  209   7.285  10.216   7.330
  362POPC   D2A  210   7.382  10.548   7.008
  362POPC   C3A  211   7.048  10.654   6.783
  362POPC   C4A  212   6.922  10.981   6.499
  362POPC   C1B  213   7.171   9.870   6.993
  362POPC   C2B  214   7.315  10.181   6.660
  362POPC   C3B  215   7.556  10.286   6.270
  362POPC   C4B  216   7.925  10.532   6.264
  363POPC   NC3  217   9.447   2.727   8.583
  363POPC   PO4  218   9.830   2.710   8.494
  363POPC   GL1  219   9.601   2.706   8.165
  363POPC   GL2  220   9.691   2.943   8.102
  363POPC   C1A  221   9.409   2.468   7.773
  363POPC   D2A  222   9.417   2.220   7.436
  363POPC   C3A  223   9.503   1.774   7.383
  363POPC   C4A  224   9.447   1.289   7.344
  363POPC   C1B  225   9.571   3.020   7.702
  363POPC   C2B  226   9.460   2.797   7.271
  363POPC   C3B  227   9.172   2.577   7.080
  363POPC   C4B  228   8.857   2.512   6.793
  364POPC   NC3  229   1.338   6.858   8.110
  364POPC   PO4  230   1.275   6.615   7.796
  364POPC   GL1  231   1.284   6.500   7.443
  364POPC   GL2  232   0.922   6.582   7.394
  364POPC   C1A  233   1.071   6.296   7.052
  364POPC   D2A  234   1.032   6.431   6.621
  364POPC   C3A  235   1.111   6.214   6.236
  364POPC   C4A  236   0.845   5.813   6.171
  364POPC   C1B  237   0.740   6.742   6.973
  364POPC   C2B  238   0.804   6.849   6.532
  364POPC   C3B  239   1.163   6.746   6.187
  364POPC   C4B  240   1.184   6.484   5.811
  365POPC   NC3  241  11.860   5.040   8.435
  365POPC   PO4  242  11.853   4.712   8.212
  365POPC   GL1  243  11.726   4.686   7.820
  365POPC   GL2  244  11.461   4.626   7.846
  365POPC   C1A  245  12.040   4.837   7.467
  365POPC   D2A  246  12.185   4.935   7.060
  365POPC   C3A  247  11.998   5.311   6.769
  365POPC   C4A  248  11.792   5.721   6.770
  365POPC   C1B  249  11.584   4.550   7.389
  365POPC   C2B  250  11.484   4.230   7.116
  365POPC   C3B  251  11.550   4.275   6.713
  365POPC   C4B  252  11.404   4.176   6.312
  366POPC   NC3  253  11.060  13.356   8.748
  366POPC   PO4  254  10.819  13.150   8.476
  366POPC   GL1  255  10.589  13.084   8.146
  366POPC   GL2  256  10.494  12.843   8.072
  366POPC   C1A  257  10.524  13.417   7.834
  366POPC   D2A  258  10.718  13.684   7.527
  366POPC   C3A  259  10.618  14.107   7.684
  366POPC   C4A  260  10.349  14.338   8.015
  366POPC   C1B  261  10.318  12.974   7.699
  366POPC   C2B  262  10.270  13.336   7.453
  366POPC   C3B  263  10.240  13.620   7.079
  366POPC   C4B  264  10.498  13.772   6.703
  367POPC   NC3  265   3.291  13.539   7.934
  367POPC   PO4  266   3.250  13.903   8.006
  367POPC   GL1  267   3.181  14.030   7.646
  367POPC   GL2  268   3.426  14.083   7.524
  367POPC   C1A  269   2.893  14.206   7.323
  367POPC   D2A  270   2.800  14.098   6.908
  367POPC   C3A  271   3.148  14.132   6.576
  367POPC   C4A  272   3.432  14.483   6.413
  367POPC   C1B  273   3.378  14.138   7.081
  367POPC   C2B  274   3.718  14.301   6.856
  367POPC   C3B  275   4.041  14.196   6.535
  367POPC   C4B  276   4.152  14.317   6.049
  368POPC   NC3  277   3.172   4.937   7.960
  368POPC   PO4  278   3.405   5.211   7.771
  368POPC   GL1  279   3.414   5.234   7.387
  368POPC   GL2  280   3.630   5.378   7.248
  368POPC   C1A  281   3.231   5.346   6.967
  368POPC   D2A  282   3.341   5.319   6.505
  368POPC   C3A  283   3.024   5.233   6.233
  368POPC   C4A  284   2.742   5.450   5.990
  368POPC   C1B  285   3.776   5.355   6.830
  368POPC   C2B  286   3.850   5.059   6.451
  368POPC   C3B  287   4.081   4.897   6.078
  368POPC   C4B  288   4.016   4.968   5.646
  369POPC   NC3  289   9.508   0.913   8.663
  369POPC   PO4  290   9.729   1.195   8.428
  369POPC   GL1  291   9.948   1.073   8.052
  369POPC   GL2  292  10.085   0.787   8.045
  369POPC   C1A  293   9.698   0.950   7.659
  369POPC   D2A  294   9.277   0.841   7.538
  369POPC   C3A  295   9.325   0.753   7.149
  369POPC   C4A  296   9.516   0.462   6.757
  369POPC   C1B  297  10.218   0.748   7.577
  369POPC   C2B  298  10.167   0.608   7.155
  369POPC   C3B  299  10.046   0.636   6.750
  369POPC   C4B  300   9.836   0.389   6.391
  370POPC   NC3  301   3.998   1.142   8.104
  370POPC   PO4  302   3.978   0.856   7.903
  370POPC   GL1  303   3.894   1.173   7.678
  370POPC   GL2  304   4.147   1.186   7.559
  370POPC   C1A  305   3.735   1.160   7.268
  370POPC   D2A  306   3.447   0.941   6.896
  370POPC   C3A  307   3.359   1.117   6.464
  370POPC   C4A  308   3.519   1.091   6.024
  370POPC   C1B  309   4.157   1.244   7.042
  370POPC   C2B  310   4.325   1.229   6.578
  370POPC   C3B  311   4.567   1.339   6.202
  370POPC   C4B  312   4.852   1.636   5.950
  371POPC   NC3  313   6.217   3.781   8.172
  371POPC   PO4  314   5.876   3.655   8.057
  371POPC   GL1  315   5.770   3.462   7.750
  371POPC   GL2  316   5.733   3.620   7.439
  371POPC   C1A  317   5.943   3.173   7.420
  371POPC   D2A  318   6.228   2.812   7.249
  371POPC   C3A  319   6.580   2.652   7.018
  371POPC   C4A  320   6.862   2.886   6.761
  371POPC   C1B  321   5.605   3.612   7.034
  371POPC   C2B  322   5.546   3.410   6.646
  371POPC   C3B  323   5.577   3.287   6.145
  371POPC   C4B  324   5.506   3.082   5.759
  372POPC   NC3  325  12.884   1.381   7.852
  372POPC   PO4  326  12.588   1.550   8.034
  372POPC   GL1  327  12.535   1.519   7.622
  372POPC   GL2  328  12.662   1.658   7.428
  372POPC   C1A  329  12.415   1.203   7.243
  372POPC   D2A  330  12.147   0.931   6.967
  372POPC   C3A  331  12.147   0.532   6.903
  372POPC   C4A  332  12.007   0.162   6.571
  372POPC   C1B  333  12.649   1.572   6.999
  372POPC   C2B  334  12.493   1.576   6.527
  372POPC   C3B  335  12.514   1.699   6.112
  372POPC   C4B  336  12.606   2.019   5.777
  373POPC   NC3  337  12.920   5.682   7.804
  373POPC   PO4  338  12.616   5.814   8.035
  373POPC   GL1  339  12.528   5.455   7.871
  373POPC   GL2  340  12.526   5.573   7.574
  373POPC   C1A  341  12.687   5.086   7.653
  373POPC   D2A  342  12.676   4.740   7.348
  373POPC   C3A  343  12.429   4.457   7.034
  373POPC   C4A  344  12.045   4.413   6.822
  373POPC   C1B  345  12.730   5.314   7.224
  373POPC   C2B  346  12.698   4.965   6.889
  373POPC   C3B  347  12.905   4.800   6.479
  373POPC   C4B  348  12.724   4.706   6.044
  374POPC   NC3  349   8.525   5.989   7.985
  374POPC   PO4  350   8.905   6.181   8.049
  374POPC   GL1  351   8.791   6.301   7.686
  374POPC   GL2  352   8.878   5.928   7.623
  374POPC   C1A  353   8.807   6.520   7.233
  374POPC   D2A  354   8.882   6.512   6.800
  374POPC   C3A  355   8.676   6.387   6.387
  374POPC   C4A  356   8.598   6.716   6.044
  374POPC   C1B  357   8.830   6.020   7.132
  374POPC   C2B  358   8.971   6.003   6.613
  374POPC   C3B  359   8.933   5.999   6.142
  374POPC   C4B  360   9.123   6.068   5.664
  375POPC   NC3  361  12.834  10.376   8.220
  375POPC   PO4  362  12.496  10.607   8.290
  375POPC   GL1  363  12.507  10.622   7.952
  375POPC   GL2  364  12.817  10.662   7.817
  375POPC   C1A  365  12.343  10.331   7.647
  375POPC   D2A  366  12.165   9.917   7.480
  375POPC   C3A  367  11.944   9.606   7.730
  375POPC   C4A  368  11.765   9.500   8.113
  375POPC   C1B  369  12.721  10.570   7.353
  375POPC   C2B  370  12.657  10.422   6.939
  375POPC   C3B  371  12.313  10.269   6.595
  375POPC   C4B  372  12.044  10.095   6.292
  376POPC   NC3  373   0.495  12.891   7.517
  376POPC   PO4  374   0.478  12.593   7.728
  376POPC   GL1  375   0.353  12.435   7.439
  376POPC   GL2  376   0.542  12.285   7.370
  376POPC   C1A  377   0.375  12.710   7.034
  376POPC   D2A  378   0.498  12.656   6.605
  376POPC   C3A  379   0.299  12.610   6.182
  376POPC   C4A  380   0.298  12.232   5.962
  376POPC   C1B  381   0.733  12.381   6.947
  376POPC   C2B  382   0.589  12.143   6.538
  376POPC   C3B  383   0.593  11.867   6.226
  376POPC   C4B  384   0.419  11.474   6.011
  377POPC   NC3  385   1.247   7.762   7.984
  377POPC   PO4  386   1.536   8.008   8.037
  377POPC   GL1  387   1.627   7.910   7.668
  377POPC   GL2  388   1.797   7.684   7.763
  377POPC   C1A  389   1.267   7.850   7.396
  377POPC   D2A  390   1.151   7.878   6.990
  377POPC   C3A  391   1.185   8.202   6.664
  377POPC   C4A  392   1.223   8.626   6.575
  377POPC   C1B  393   1.890   7.890   7.371
  377POPC   C2B  394   2.160   8.061   7.034
  377POPC   C3B  395   2.471   8.194   6.796
  377POPC   C4B  396   2.577   8.099   6.362
  378POPC   NC3  397  10.364   9.616   8.198
  378POPC   PO4  398  10.197   9.354   8.420
  378POPC   GL1  399  10.280   9.162   8.062
  378POPC   GL2  400  10.538   9.087   8.108
  378POPC   C1A  401  10.023   9.156   7.665
  378POPC   D2A  402  10.059   9.098   7.170
  378POPC   C3A  403  10.019   8.751   6.897
  378POPC   C4A  404   9.801   8.429   6.627
  378POPC   C1B  405  10.377   8.781   7.807
  378POPC   C2B  406  10.453   8.813   7.339
  378POPC   C3B  407  10.498   8.679   6.880
  378POPC   C4B  408  10.673   8.650   6.456
  379POPC   NC3  409  11.298   4.696   8.296
  379POPC   PO4  410  11.362   5.099   8.364
  379POPC   GL1  411  11.581   5.058   8.064
  379POPC   GL2  412  11.582   5.342   7.963
  379POPC   C1A  413  11.522   5.049   7.612
  379POPC   D2A  414  11.645   5.148   7.132
  379POPC   C3A  415  11.692   4.801   6.843
  379POPC   C4A  416  11.893   4.787   6.424
  379POPC   C1B  417  11.723   5.508   7.615
  379POPC   C2B  418  11.824   5.788   7.240
  379POPC   C3B  419  11.900   6.219   6.975
  379POPC   C4B  420  11.734   6.615   6.852
  380POPC   NC3  421   0.069   2.420   7.544
  380POPC   PO4  422  -0.269   2.308   7.710
  380POPC   GL1  423  -0.467   2.468   7.427
  380POPC   GL2  424  -0.639   2.644   7.419
  380POPC   C1A  425  -0.272   2.623   6.979
  380POPC   D2A  426  -0.235   2.436   6.524
  380POPC   C3A  427   0.137   2.543   6.227
  380POPC   C4A  428   0.453   2.375   5.958
  380POPC   C1B  429  -0.807   2.908   7.049
  380POPC   C2B  430  -0.832   3.060   6.572
  380POPC   C3B  431  -1.099   3.326   6.228
  380POPC   C4B  432  -1.289   3.402   5.812
  381POPC   NC3  433  13.692   7.247   8.069
  381POPC   PO4  434  13.855   7.560   7.914
  381POPC   GL1  435  13.791   7.415   7.510
  381POPC   GL2  436  13.523   7.214   7.599
  381POPC   C1A  437  13.732   7.401   7.095
  381POPC   D2A  438  13.777   7.579   6.685
  381POPC   C3A  439  13.621   7.657   6.264
  381POPC   C4A  440  13.602   7.797   5.867
  381POPC   C1B  441  13.251   7.602   7.390
  381POPC   C2B  442  13.312   7.824   6.988
  381POPC   C3B  443  13.244   7.901   6.601
  381POPC   C4B  444  13.204   7.964   6.121
  382POPC   NC3  445   8.693  13.533   8.338
  382POPC   PO4  446   9.064  13.588   8.377
  382POPC   GL1  447   9.112  13.244   8.106
  382POPC   GL2  448   8.828  13.134   8.083
  382POPC   C1A  449   9.437  12.876   8.009
  382POPC   D2A  450   9.604  12.440   7.885
  382POPC   C3A  451   9.629  12.380   7.389
  382POPC   C4A  452   9.570  11.989   7.086
  382POPC   C1B  453   9.091  13.064   7.678
  382POPC   C2B  454   9.318  12.767   7.418
  382POPC   C3B  455   9.620  12.712   7.029
  382POPC   C4B  456   9.952  12.692   6.713
  383POPC   NC3  457   0.433   8.185   7.826
  383POPC   PO4  458   0.711   7.871   7.731
  383POPC   GL1  459   0.724   8.095   7.427
  383POPC   GL2  460   0.717   7.926   7.196
  383POPC   C1A  461   1.027   8.364   7.141
  383POPC   D2A  462   1.411   8.569   7.035
  383POPC   C3A  463   1.660   8.473   6.650
  383POPC   C4A  464   1.882   8.554   6.218
  383POPC   C1B  465   0.686   8.095   6.779
  383POPC   C2B  466   0.688   8.285   6.351
  383POPC   C3B  467   0.432   8.578   6.048
  383POPC   C4B  468   0.021   8.660   6.018
  384POPC   NC3  469   5.859   8.577   8.268
  384POPC   PO4  470   5.855   8.923   8.268
  384POPC   GL1  471   5.914   8.955   7.866
  384POPC   GL2  472   5.767   9.206   7.788
  384POPC   C1A  473   5.881   8.819   7.383
  384POPC   D2A  474   5.638   8.910   6.994
  384POPC   C3A  475   5.124   8.943   6.922
  384POPC   C4A  476   4.954   8.555   6.714
  384POPC   C1B  477   5.865   9.292   7.325
  384POPC   C2B  478   6.154   9.197   6.954
  384POPC   C3B  479   6.369   9.168   6.553
  384POPC   C4B  480   6.590   9.375   6.143
  385POPC   NC3  481   5.352  13.573   8.241
  385POPC   PO4  482   5.429  13.890   8.038
  385POPC   GL1  483   5.424  14.169   7.725
  385POPC   GL2  484   5.600  14.106   7.525
  385POPC   C1A  485   5.471  14.618   7.557
  385POPC   D2A  486   5.601  14.973   7.325
  385POPC   C3A  487   5.417  14.704   7.030
  385POPC   C4A  488   5.358  14.241   6.883
  385POPC   C1B  489   5.418  13.809   7.190
  385POPC   C2B  490   5.466  13.747   6.736
  385POPC   C3B  491   5.299  13.495   6.369
  385POPC   C4B  492   5.258  13.011   6.295
  386POPC   NC3  493   6.337   0.015   7.978
  386POPC   PO4  494   6.291  -0.378   8.053
  386POPC   GL1  495   6.317  -0.278   7.647
  386POPC   GL2  496   6.016  -0.176   7.592
  386POPC   C1A  497   6.587  -0.427   7.308
  386POPC   D2A  498   6.625  -0.422   6.856
  386POPC   C3A  499   6.835  -0.574   6.536
  386POPC   C4A  500   7.123  -0.627   6.163
  386POPC   C1B  501   5.984  -0.174   7.139
  386POPC   C2B  502   6.219  -0.181   6.734
  386POPC   C3B  503   6.484  -0.302   6.362
  386POPC   C4B  504   6.651  -0.555   6.034
  387POPC   NC3  505   7.553   1.598   8.128
  387POPC   PO4  506   7.881   1.675   8.367
  387POPC   GL1  507   7.966   1.472   8.008
  387POPC   GL2  508   8.191   1.487   7.977
  387POPC   C1A  509   7.893   1.510   7.515
  387POPC   D2A  510   7.954   1.539   7.047
  387POPC   C3A  511   7.896   1.783   6.617
  387POPC   C4A  512   7.780   1.908   6.186
  387POPC   C1B  513   8.398   1.374   7.634
  387POPC   C2B  514   8.483   1.289   7.167
  387POPC   C3B  515   8.650   1.207   6.743
  387POPC   C4B  516   8.637   0.934   6.347
  388POPC   NC3  517   7.647   3.964   7.939
  388POPC   PO4  518   7.222   3.973   7.950
  388POPC   GL1  519   7.373   3.938   7.556
  388POPC   GL2  520   7.375   4.262   7.541
  388POPC   C1A  521   7.396   3.634   7.172
  388POPC   D2A  522   7.594   3.376   6.814
  388POPC   C3A  523   7.216   3.227   6.627
  388POPC   C4A  524   7.069   2.995   6.309
  388POPC   C1B  525   7.516   4.126   7.063
  388POPC   C2B  526   7.545   4.181   6.543
  388POPC   C3B  527   7.378   4.509   6.249
  388POPC   C4B  528   7.110   4.843   6.020
  389POPC   NC3  529  12.656  11.097   8.158
  389POPC   PO4  530  13.046  11.161   8.283
  389POPC   GL1  531  13.168  11.170   7.938
  389POPC   GL2  532  12.977  11.154   7.718
  389POPC   C1A  533  13.612  11.242   7.765
  389POPC   D2A  534  13.851  11.360   7.351
  389POPC   C3A  535  13.658  11.174   6.923
  389POPC   C4A  536  13.391  11.283   6.567
  389POPC   C1B  537  12.929  11.099   7.264
  389POPC   C2B  538  12.728  10.893   6.894
  389POPC   C3B  539  12.563  10.747   6.494
  389POPC   C4B  540  12.238  11.020   6.297
  390POPC   NC3  541  10.139  11.344   8.560
  390POPC   PO4  542   9.939  11.158   8.238
  390POPC   GL1  543   9.585  11.127   7.971
  390POPC   GL2  544   9.719  10.860   7.900
  390POPC   C1A  545   9.430  11.494   7.770
  390POPC   D2A  546   9.366  11.811   7.478
  390POPC   C3A  547   8.925  11.886   7.316
  390POPC   C4A  548   8.651  12.091   7.001
  390POPC   C1B  549   9.622  10.994   7.488
  390POPC   C2B  550   9.348  11.163   7.113
  390POPC   C3B  551   9.212  11.552   7.056
  390POPC   C4B  552   9.112  11.912   6.863
  391POPC   NC3  553   5.466   7.451   8.402
  391POPC   PO4  554   5.265   7.246   8.125
  391POPC   GL1  555   5.385   7.213   7.722
  391POPC   GL2  556   5.133   7.124   7.554
  391POPC   C1A  557   5.433   7.556   7.400
  391POPC   D2A  558   5.229   7.666   6.996
  391POPC   C3A  559   4.789   7.488   6.892
  391POPC   C4A  560   4.349   7.313   6.892
  391POPC   C1B  561   5.147   7.225   7.125
  391POPC   C2B  562   5.363   7.016   6.771
  391POPC   C3B  563   5.510   6.708   6.492
  391POPC   C4B  564   5.667   6.743   6.052
  392POPC   NC3  565   1.558  12.997   7.906
  392POPC   PO4  566   1.472  12.605   7.855
  392POPC   GL1  567   1.806  12.411   7.601
  392POPC   GL2  568   1.700  12.274   7.478
  392POPC   C1A  569   2.134  12.571   7.282
  392POPC   D2A  570   2.068  12.703   6.804
  392POPC   C3A  571   2.411  12.510   6.583
  392POPC   C4A  572   2.478  12.077   6.393
  392POPC   C1B  573   1.659  12.165   7.005
  392POPC   C2B  574   1.453  11.934   6.625
  392POPC   C3B  575   1.280  11.558   6.399
  392POPC   C4B  576   1.366  11.183   6.616
  393POPC   NC3  577   2.347   1.826   8.024
  393POPC   PO4  578   2.523   2.084   7.813
  393POPC   GL1  579   2.654   1.953   7.465
  393POPC   GL2  580   2.933   1.737   7.399
  393POPC   C1A  581   2.405   1.733   7.108
  393POPC   D2A  582   2.289   1.587   6.696
  393POPC   C3A  583   2.368   1.921   6.300
  393POPC   C4A  584   2.393   2.157   5.960
  393POPC   C1B  585   2.672   1.381   7.370
  393POPC   C2B  586   2.429   1.204   7.018
  393POPC   C3B  587   2.483   1.106   6.602
  393POPC   C4B  588   2.870   1.136   6.349
  394POPC   NC3  589  12.769   4.776   8.603
  394POPC   PO4  590  13.074   4.927   8.393
  394POPC   GL1  591  13.050   4.977   8.051
  394POPC   GL2  592  13.023   4.751   7.916
  394POPC   C1A  593  13.166   5.257   7.733
  394POPC   D2A  594  13.319   5.537   7.431
  394POPC   C3A  595  13.366   5.554   7.021
  394POPC   C4A  596  13.289   5.789   6.620
  394POPC   C1B  597  13.120   4.420   7.591
  394POPC   C2B  598  13.341   4.234   7.251
  394POPC   C3B  599  13.281   3.989   6.852
  394POPC   C4B  600  13.131   3.664   6.576
  395POPC   NC3  601   9.926   5.117   8.357
  395POPC   PO4  602   9.971   4.684   8.466
  395POPC   GL1  603  10.148   4.488   8.079
  395POPC   GL2  604  10.166   4.221   8.031
  395POPC   C1A  605  10.127   4.646   7.671
  395POPC   D2A  606   9.874   4.574   7.326
  395POPC   C3A  607   9.867   4.189   7.047
  395POPC   C4A  608   9.763   3.752   6.993
  395POPC   C1B  609  10.053   4.109   7.607
  395POPC   C2B  610  10.246   3.849   7.269
  395POPC   C3B  611  10.202   3.892   6.817
  395POPC   C4B  612   9.972   3.836   6.453
  396POPC   NC3  613   9.008   2.765   8.150
  396POPC   PO4  614   9.061   3.048   8.417
  396POPC   GL1  615   9.191   3.161   8.037
  396POPC   GL2  616   8.948   3.305   7.968
  396POPC   C1A  617   9.089   2.946   7.641
  396POPC   D2A  618   9.000   2.471   7.526
  396POPC   C3A  619   9.076   2.032   7.725
  396POPC   C4A  620   9.190   1.547   7.681
  396POPC   C1B  621   9.305   3.436   7.708
  396POPC   C2B  622   9.561   3.723   7.505
  396POPC   C3B  623   9.434   4.199   7.512
  396POPC   C4B  624   9.384   4.295   7.067
  397POPC   NC3  625  10.013   0.290   8.363
  397POPC   PO4  626   9.757   0.603   8.404
  397POPC   GL1  627   9.539   0.516   8.056
  397POPC   GL2  628   9.803   0.452   7.891
  397POPC   C1A  629   9.192   0.401   7.770
  397POPC   D2A  630   8.916   0.410   7.409
  397POPC   C3A  631   8.929   0.457   6.987
  397POPC   C4A  632   9.086   0.594   6.547
  397POPC   C1B  633   9.783   0.489   7.437
  397POPC   C2B  634   9.804   0.225   7.082
  397POPC   C3B  635  10.026   0.085   6.743
  397POPC   C4B  636  10.172  -0.047   6.361
  398POPC   NC3  637  10.711   2.278   8.623
  398POPC   PO4  638  10.932   2.558   8.466
  398POPC   GL1  639  10.834   2.397   8.161
  398POPC   GL2  640  10.975   2.122   8.130
  398POPC   C1A  641  10.858   2.363   7.680
  398POPC   D2A  642  10.911   2.550   7.219
  398POPC   C3A  643  10.883   2.474   6.754
  398POPC   C4A  644  10.609   2.624   6.405
  398POPC   C1B  645  11.181   2.002   7.767
  398POPC   C2B  646  11.255   2.088   7.367
  398POPC   C3B  647  11.509   2.077   6.982
  398POPC   C4B  648  11.554   1.997   6.515
  399POPC   NC3  649  13.302   8.172   8.575
  399POPC   PO4  650  13.114   7.991   8.293
  399POPC   GL1  651  13.063   8.187   7.916
  399POPC   GL2  652  12.992   7.950   7.743
  399POPC   C1A  653  13.211   8.415   7.558
  399POPC   D2A  654  12.946   8.620   7.258
  399POPC   C3A  655  12.556   8.471   7.109
  399POPC   C4A  656  12.505   8.256   6.684
  399POPC   C1B  657  12.978   8.047   7.298
  399POPC   C2B  658  13.118   8.294   6.894
  399POPC   C3B  659  12.846   8.698   6.755
  399POPC   C4B  660  12.744   9.169   6.697
  400POPC   NC3  661   8.548   9.446   7.946
  400POPC   PO4  662   8.208   9.206   7.947
  400POPC   GL1  663   8.237   9.359   7.611
  400POPC   GL2  664   7.960   9.454   7.440
  400POPC   C1A  665   8.663   9.418   7.345
  400POPC   D2A  666   8.796   9.415   6.866
  400POPC   C3A  667   9.217   9.523   6.757
  400POPC   C4A  668   9.467   9.447   6.381
  400POPC   C1B  669   7.772   9.407   7.085
  400POPC   C2B  670   7.627   9.554   6.654
  400POPC   C3B  671   7.375   9.692   6.320
  400POPC   C4B  672   6.937   9.710   6.251
  401POPC   NC3  673   1.913   0.127   8.108
  401POPC   PO4  674   2.295   0.035   8.036
  401POPC   GL1  675   2.468   0.132   7.718
  401POPC   GL2  676   2.598  -0.103   7.596
  401POPC   C1A  677   2.424   0.245   7.250
  401POPC   D2A  678   2.248   0.144   6.839
  401POPC   C3A  679   2.594   0.169   6.516
  401POPC   C4A  680   2.826   0.556   6.362
  401POPC   C1B  681   2.464  -0.287   7.201
  401POPC   C2B  682   2.623  -0.325   6.745
  401POPC   C3B  683   2.776  -0.508   6.329
  401POPC   C4B  684   2.748  -0.521   5.837
  402POPC   NC3  685   0.315   4.788   8.296
  402POPC   PO4  686   0.132   4.534   8.118
  402POPC   GL1  687   0.142   4.593   7.689
  402POPC   GL2  688   0.409   4.519   7.660
  402POPC   C1A  689  -0.279   4.517   7.463
  402POPC   D2A  690  -0.629   4.764   7.292
  402POPC   C3A  691  -0.733   4.931   6.922
  402POPC   C4A  692  -0.657   5.177   6.526
  402POPC   C1B  693   0.645   4.593   7.257
  402POPC   C2B  694   0.670   4.648   6.833
  402POPC   C3B  695   0.705   4.777   6.437
  402POPC   C4B  696   0.804   4.728   6.020
  403POPC   NC3  697   4.976  12.668   8.313
  403POPC   PO4  698   5.048  12.476   7.975
  403POPC   GL1  699   5.188  12.422   7.612
  403POPC   GL2  700   5.052  12.609   7.448
  403POPC   C1A  701   5.156  12.100   7.286
  403POPC   D2A  702   4.897  11.796   7.074
  403POPC   C3A  703   5.027  12.019   6.690
  403POPC   C4A  704   4.890  12.296   6.295
  403POPC   C1B  705   4.760  12.547   7.050
  403POPC   C2B  706   4.613  12.690   6.604
  403POPC   C3B  707   4.408  12.435   6.261
  403POPC   C4B  708   4.144  12.085   6.069
  404POPC   NC3  709   5.478  12.646   8.142
  404POPC   PO4  710   5.833  12.720   7.950
  404POPC   GL1  711   5.822  12.843   7.667
  404POPC   GL2  712   6.120  12.942   7.547
  404POPC   C1A  713   5.832  12.942   7.192
  404POPC   D2A  714   5.598  12.855   6.830
  404POPC   C3A  715   5.703  12.536   6.483
  404POPC   C4A  716   6.050  12.601   6.131
  404POPC   C1B  717   6.233  13.223   7.140
  404POPC   C2B  718   6.283  13.220   6.714
  404POPC   C3B  719   6.477  13.026   6.324
  404POPC   C4B  720   6.451  12.927   5.866
  405POPC   NC3  721   1.819   1.043   7.617
  405POPC   PO4  722   1.663   0.730   7.510
  405POPC   GL1  723   1.650   0.899   7.106
  405POPC   GL2  724   1.425   0.639   6.981
  405POPC   C1A  725   1.421   1.020   6.727
  405POPC   D2A  726   1.242   1.051   6.319
  405POPC   C3A  727   1.467   0.759   6.055
  405POPC   C4A  728   1.546   0.318   6.018
  405POPC   C1B  729   0.996   0.660   6.764
  405POPC   C2B  730   0.875   0.687   6.346
  405POPC   C3B  731   0.546   0.591   5.992
  405POPC   C4B  732   0.180   0.450   5.810
  406POPC   NC3  733   2.419   2.586   7.686
  406POPC   PO4  734   2.035   2.488   7.680
  406POPC   GL1  735   1.970   2.707   7.350
  406POPC   GL2  736   2.232   2.613   7.201
  406POPC   C1A  737   1.798   3.123   7.151
  406POPC   D2A  738   1.662   3.456   6.817
  406POPC   C3A  739   1.793   3.495   6.373
  406POPC   C4A  740   1.871   3.877   6.136
  406POPC   C1B  741   2.253   2.624   6.706
  406POPC   C2B  742   1.981   2.486   6.345
  406POPC   C3B  743   1.604   2.529   6.138
  406POPC   C4B  744   1.245   2.273   6.041
  407POPC   NC3  745  10.316   2.683   8.692
  407POPC   PO4  746  10.422   2.587   8.347
  407POPC   GL1  747  10.024   2.583   8.090
  407POPC   GL2  748  10.077   2.285   8.036
  407POPC   C1A  749   9.902   2.588   7.639
  407POPC   D2A  750   9.825   2.497   7.148
  407POPC   C3A  751   9.603   2.766   6.783
  407POPC   C4A  752   9.451   3.065   6.401
  407POPC   C1B  753  10.370   2.314   7.700
  407POPC   C2B  754  10.417   2.438   7.304
  407POPC   C3B  755  10.401   2.510   6.871
  407POPC   C4B  756  10.117   2.865   6.666
  408POPC   NC3  757   6.905   1.795   8.652
  408POPC   PO4  758   6.884   1.715   8.261
  408POPC   GL1  759   7.165   1.959   8.064
  408POPC   GL2  760   7.171   1.790   7.854
  408POPC   C1A  761   7.173   2.153   7.566
  408POPC   D2A  762   7.036   2.046   7.145
  408POPC   C3A  763   6.879   2.233   6.751
  408POPC   C4A  764   6.812   2.454   6.334
  408POPC   C1B  765   7.359   1.499   7.594
  408POPC   C2B  766   7.549   1.175   7.268
  408POPC   C3B  767   7.683   1.086   6.836
  408POPC   C4B  768   7.680   0.744   6.476
  409POPC   NC3  769  12.161   5.929   8.416
  409POPC   PO4  770  11.796   6.013   8.551
  409POPC   GL1  771  11.926   6.182   8.105
  409POPC   GL2  772  12.203   6.084   7.939
  409POPC   C1A  773  11.773   6.056   7.704
  409POPC   D2A  774  11.595   6.374   7.353
  409POPC   C3A  775  11.339   6.742   7.408
  409POPC   C4A  776  11.347   7.103   7.701
  409POPC   C1B  777  12.237   6.133   7.501
  409POPC   C2B  778  12.293   5.922   7.067
  409POPC   C3B  779  12.225   5.908   6.603
  409POPC   C4B  780  11.931   6.045   6.300
  410POPC   NC3  781   7.029   4.710   7.735
  410POPC   PO4  782   7.223   5.037   7.811
  410POPC   GL1  783   7.268   4.939   7.369
  410POPC   GL2  784   7.543   4.911   7.433
  410POPC   C1A  785   7.062   5.005   6.951
  410POPC   D2A  786   6.884   5.019   6.540
  410POPC   C3A  787   6.910   4.563   6.448
  410POPC   C4A  788   6.806   4.249   6.756
  410POPC   C1B  789   7.689   4.669   7.060
  410POPC   C2B  790   7.770   4.652   6.599
  410POPC   C3B  791   7.930   4.947   6.292
  410POPC   C4B  792   8.148   5.142   5.962
  411POPC   NC3  793   5.650   2.480   7.880
  411POPC   PO4  794   5.821   2.143   7.900
  411POPC   GL1  795   5.841   2.216   7.444
  411POPC   GL2  796   6.126   2.368   7.531
  411POPC   C1A  797   5.407   2.211   7.187
  411POPC   D2A  798   5.192   2.342   6.759
  411POPC   C3A  799   5.399   2.254   6.350
  411POPC   C4A  800   5.832   2.366   6.330
  411POPC   C1B  801   5.999   2.392   7.092
  411POPC   C2B  802   5.683   2.460   6.779
  411POPC   C3B  803   5.488   2.711   6.473
  411POPC   C4B  804   5.420   2.671   6.033
  412POPC   NC3  805   2.496   4.420   7.784
  412POPC   PO4  806   2.804   4.608   7.739
  412POPC   GL1  807   2.863   4.598   7.301
  412POPC   GL2  808   2.539   4.537   7.286
  412POPC   C1A  809   3.277   4.814   7.115
  412POPC   D2A  810   3.758   4.895   7.279
  412POPC   C3A  811   4.098   5.014   6.967
  412POPC   C4A  812   4.346   5.395   6.715
  412POPC   C1B  813   2.847   4.531   6.901
  412POPC   C2B  814   2.969   4.421   6.486
  412POPC   C3B  815   3.132   4.192   6.140
  412POPC   C4B  816   3.430   4.159   5.765
  413POPC   NC3  817   5.918  10.331   7.710
  413POPC   PO4  818   5.675  10.621   7.763
  413POPC   GL1  819   5.570  10.742   7.380
  413POPC   GL2  820   5.741  10.625   7.185
  413POPC   C1A  821   5.379  11.002   7.044
  413POPC   D2A  822   5.565  11.136   6.621
  413POPC   C3A  823   5.903  10.744   6.677
  413POPC   C4A  824   6.208  10.594   6.983
  413POPC   C1B  825   5.827  10.287   6.870
  413POPC   C2B  826   5.940   9.992   6.567
  413POPC   C3B  827   6.016   9.538   6.377
  413POPC   C4B  828   6.055   9.353   5.979
  414POPC   NC3  829   4.239   0.548   7.555
  414POPC   PO4  830   4.603   0.530   7.654
  414POPC   GL1  831   4.584   0.644   7.226
  414POPC   GL2  832   4.471   0.892   7.267
  414POPC   C1A  833   4.964   0.594   6.905
  414POPC   D2A  834   5.075   0.545   6.470
  414POPC   C3A  835   5.345   0.892   6.475
  414POPC   C4A  836   5.577   1.293   6.362
  414POPC   C1B  837   4.633   0.954   6.850
  414POPC   C2B  838   4.874   1.114   6.496
  414POPC   C3B  839   5.132   1.231   6.141
  414POPC   C4B  840   5.480   1.233   5.855
  415POPC   NC3  841  10.403  10.953   8.272
  415POPC   PO4  842  10.728  11.162   8.355
  415POPC   GL1  843  10.930  11.374   8.154
  415POPC   GL2  844  11.040  11.238   7.968
  415POPC   C1A  845  10.972  11.713   7.824
  415POPC   D2A  846  10.899  12.172   7.667
  415POPC   C3A  847  10.803  12.240   7.233
  415POPC   C4A  848  10.560  12.111   6.863
  415POPC   C1B  849  10.936  11.324   7.514
  415POPC   C2B  850  11.086  10.975   7.160
  415POPC   C3B  851  10.934  10.882   6.733
  415POPC   C4B  852  10.527  10.791   6.536
  416POPC   NC3  853   3.704  11.766   8.177
  416POPC   PO4  854   3.360  11.833   8.322
  416POPC   GL1  855   3.435  11.971   7.827
  416POPC   GL2  856   3.658  12.159   7.852
  416POPC   C1A  857   3.674  11.701   7.524
  416POPC   D2A  858   3.922  11.377   7.209
  416POPC   C3A  859   4.040  11.508   6.786
  416POPC   C4A  860   3.916  11.794   6.427
  416POPC   C1B  861   3.640  12.237   7.432
  416POPC   C2B  862   3.761  12.236   6.967
  416POPC   C3B  863   4.166  12.136   6.683
  416POPC   C4B  864   4.616  12.206   6.736
  417POPC   NC3  865  12.340  13.333   8.103
  417POPC   PO4  866  12.382  13.742   8.020
  417POPC   GL1  867  12.368  13.950   7.732
  417POPC   GL2  868  12.590  14.098   7.694
  417POPC   C1A  869  12.135  13.985   7.329
  417POPC   D2A  870  11.789  14.058   7.008
  417POPC   C3A  871  11.398  14.225   6.841
  417POPC   C4A  872  10.981  14.111   6.688
  417POPC   C1B  873  12.669  13.928   7.264
  417POPC   C2B  874  12.519  13.927   6.814
  417POPC   C3B  875  12.442  14.099   6.381
  417POPC   C4B  876  12.728  14.457   6.149
  418POPC   NC3  877   6.426   2.557   8.036
  418POPC   PO4  878   6.471   2.894   7.852
  418POPC   GL1  879   6.531   2.607   7.525
  418POPC   GL2  880   6.836   2.561   7.570
  418POPC   C1A  881   6.563   2.148   7.353
  418POPC   D2A  882   6.721   1.762   7.533
  418POPC   C3A  883   6.840   1.380   7.403
  418POPC   C4A  884   7.020   1.272   7.010
  418POPC   C1B  885   7.025   2.641   7.198
  418POPC   C2B  886   7.240   2.548   6.827
  418POPC   C3B  887   7.321   2.495   6.405
  418POPC   C4B  888   7.404   2.221   6.059
  419POPC   NC3  889   9.376  10.334   8.568
  419POPC   PO4  890   9.421  10.033   8.293
  419POPC   GL1  891   9.615  10.057   7.953
  419POPC   GL2  892   9.702  10.315   7.895
  419POPC   C1A  893   9.579   9.996   7.505
  419POPC   D2A  894   9.469   9.740   7.136
  419POPC   C3A  895   9.522   9.324   7.067
  419POPC   C4A  896   9.645   9.068   6.683
  419POPC   C1B  897   9.987  10.454   7.540
  419POPC   C2B  898  10.035  10.496   7.069
  419POPC   C3B  899  10.033  10.653   6.654
  419POPC   C4B  900   9.943  11.068   6.485
  420POPC   NC3  901  11.019   7.625   8.460
  420POPC   PO4  902  10.826   7.828   8.197
  420POPC   GL1  903  11.082   7.693   7.902
  420POPC   GL2  904  10.889   7.580   7.636
  420POPC   C1A  905  11.549   7.740   7.790
  420POPC   D2A  906  11.969   7.766   7.637
  420POPC   C3A  907  12.247   8.097   7.758
  420POPC   C4A  908  12.610   8.275   7.568
  420POPC   C1B  909  10.944   7.834   7.272
  420POPC   C2B  910  11.195   8.123   6.964
  420POPC   C3B  911  11.502   8.214   6.628
  420POPC   C4B  912  11.899   8.145   6.337
  421POPC   NC3  913  13.785  10.637   8.367
  421POPC   PO4  914  14.139  10.508   8.525
  421POPC   GL1  915  14.123  10.558   8.085
  421POPC   GL2  916  14.242  10.793   7.890
  421POPC   C1A  917  13.875  10.493   7.652
  421POPC   D2A  918  13.860  10.727   7.191
  421POPC   C3A  919  13.994  10.625   6.740
  421POPC   C4A  920  14.098  10.649   6.239
  421POPC   C1B  921  14.096  10.980   7.494
  421POPC   C2B  922  14.202  11.060   7.061
  421POPC   C3B  923  14.143  11.128   6.611
  421POPC   C4B  924  14.418  11.051   6.276
  422POPC   NC3  925   4.421  10.880   7.962
  422POPC   PO4  926   4.599  10.519   8.053
  422POPC   GL1  927   4.723  10.516   7.618
  422POPC   GL2  928   4.661  10.745   7.532
  422POPC   C1A  929   5.048  10.701   7.263
  422POPC   D2A  930   4.944  10.765   6.784
  422POPC   C3A  931   5.078  11.066   6.446
  422POPC   C4A  932   5.338  11.299   6.141
  422POPC   C1B  933   4.567  10.626   7.091
  422POPC   C2B  934   4.470  10.669   6.691
  422POPC   C3B  935   4.107  10.694   6.391
  422POPC   C4B  936   3.665  10.671   6.593
  423POPC   NC3  937  12.783   2.642   7.737
  423POPC   PO4  938  12.432   2.489   7.797
  423POPC   GL1  939  12.290   2.690   7.520
  423POPC   GL2  940  12.013   2.606   7.484
  423POPC   C1A  941  12.381   2.519   7.097
  423POPC   D2A  942  12.211   2.422   6.695
  423POPC   C3A  943  11.797   2.414   6.657
  423POPC   C4A  944  11.373   2.577   6.860
  423POPC   C1B  945  11.814   2.674   7.105
  423POPC   C2B  946  11.733   2.959   6.718
  423POPC   C3B  947  11.480   3.221   6.528
  423POPC   C4B  948  11.154   3.331   6.230
  424POPC   NC3  949   8.651   5.066   8.770
  424POPC   PO4  950   8.757   5.377   8.547
  424POPC   GL1  951   8.958   5.345   8.136
  424POPC   GL2  952   8.813   5.629   8.093
  424POPC   C1A  953   9.321   5.320   7.840
  424POPC   D2A  954   9.607   5.219   7.455
  424POPC   C3A  955   9.908   5.552   7.300
  424POPC   C4A  956  10.210   5.748   6.995
  424POPC   C1B  957   8.826   5.425   7.709
  424POPC   C2B  958   8.775   5.523   7.232
  424POPC   C3B  959   8.800   5.571   6.774
  424POPC   C4B  960   8.736   5.629   6.306
  425POPC   NC3  961   5.313   4.788   8.343
  425POPC   PO4  962   5.517   4.440   8.319
  425POPC   GL1  963   5.418   4.459   7.904
  425POPC   GL2  964   5.608   4.389   7.591
  425POPC   C1A  965   5.336   4.803   7.605
  425POPC   D2A  966   5.191   5.133   7.287
  425POPC   C3A  967   5.240   5.277   6.885
  425POPC   C4A  968   5.343   5.367   6.447
  425POPC   C1B  969   5.430   4.526   7.227
  425POPC   C2B  970   5.211   4.296   6.924
  425POPC   C3B  971   4.966   4.400   6.559
  425POPC   C4B  972   4.738   4.603   6.225
  426POPC   NC3  973   3.401   5.709   7.562
  426POPC   PO4  974   3.100   5.766   7.840
  426POPC   GL1  975   2.968   5.708   7.449
  426POPC   GL2  976   2.719   5.578   7.408
  426POPC   C1A  977   3.161   5.847   7.034
  426POPC   D2A  978   3.334   6.035   6.630
  426POPC   C3A  979   3.604   5.711   6.501
  426POPC   C4A  980   3.908   5.509   6.231
  426POPC   C1B  981   2.775   5.628   6.966
  426POPC   C2B  982   2.671   5.339   6.545
  426POPC   C3B  983   2.476   5.003   6.313
  426POPC   C4B  984   2.455   4.969   5.861
  427POPC   NC3  985  10.691  11.860   8.210
  427POPC   PO4  986  10.458  11.559   8.198
  427POPC   GL1  987  10.354  11.293   7.966
  427POPC   GL2  988  10.577  11.257   7.819
  427POPC   C1A  989   9.999  11.289   7.613
  427POPC   D2A  990   9.706  11.490   7.283
  427POPC   C3A  991   9.644  11.492   6.837
  427POPC   C4A  992   9.434  11.729   6.482
  427POPC   C1B  993  10.399  11.268   7.365
  427POPC   C2B  994  10.074  11.079   7.184
  427POPC   C3B  995   9.720  10.903   6.940
  427POPC   C4B  996   9.601  10.506   6.818
  428POPC   NC3  997  11.896  11.093   8.932
  428POPC   PO4  998  11.857  11.084   8.540
  428POPC   GL1  999  11.898  11.120   8.125
  428POPC   GL2 1000  12.132  10.957   8.092
  428POPC   C1A 1001  11.628  11.209   7.728
  428POPC   D2A 1002  11.416  11.596   7.651
  428POPC   C3A 1003  11.206  11.619   7.228
  428POPC   C4A 1004  11.062  11.901   6.900
  428POPC   C1B 1005  11.975  10.749   7.712
  428POPC   C2B 1006  11.640  10.804   7.439
  428POPC   C3B 1007  11.494  10.559   7.114
  428POPC   C4B 1008  11.226  10.448   6.707
  429POPC   NC3 1009  13.344   2.543   7.926
  429POPC   PO4 1010  13.191   2.235   7.861
  429POPC   GL1 1011  13.199   2.123   7.442
  429POPC   GL2 1012  12.922   2.320   7.367
  429POPC   C1A 1013  13.356   2.289   7.030
  429POPC   D2A 1014  13.201   2.350   6.607
  429POPC   C3A 1015  13.354   2.582   6.247
  429POPC   C4A 1016  13.286   3.003   6.110
  429POPC   C1B 1017  12.857   2.505   6.969
  429POPC   C2B 1018  12.758   2.523   6.509
  429POPC   C3B 1019  12.581   2.849   6.301
  429POPC   C4B 1020  12.362   3.049   5.955
  430POPC   NC3 1021   9.586   3.242   8.497
  430POPC   PO4 1022   9.783   3.491   8.251
  430POPC   GL1 1023   9.972   3.437   8.007
  430POPC   GL2 1024  10.191   3.566   7.862
  430POPC   C1A 1025  10.332   3.127   7.907
  430POPC   D2A 1026  10.409   2.856   7.538
  430POPC   C3A 1027  10.134   2.887   7.178
  430POPC   C4A 1028   9.927   3.216   6.890
  430POPC   C1B 1029  10.029   3.413   7.482
  430POPC   C2B 1030   9.641   3.285   7.313
  430POPC   C3B 1031   9.344   3.221   6.994
  430POPC   C4B 1032   9.023   2.997   6.694
  431POPC   NC3 1033   7.813   2.983   7.974
  431POPC   PO4 1034   8.101   3.227   8.053
  431POPC   GL1 1035   8.091   3.339   7.723
  431POPC   GL2 1036   8.397   3.213   7.694
  431POPC   C1A 1037   8.220   3.666   7.353
  431POPC   D2A 1038   8.121   4.149   7.226
  431POPC   C3A 1039   8.015   4.173   6.784
  431POPC   C4A 1040   8.181   4.008   6.415
  431POPC   C1B 1041   8.726   3.508   7.551
  431POPC   C2B 1042   8.712   3.593   7.069
  431POPC   C3B 1043   8.952   3.468   6.701
  431POPC   C4B 1044   9.111   3.377   6.238
  432POPC   NC3 1045   5.902  11.522   7.797
  432POPC   PO4 1046   5.837  11.859   7.929
  432POPC   GL1 1047   5.773  11.769   7.416
  432POPC   GL2 1048   5.615  11.974   7.369
  432POPC   C1A 1049   5.492  11.550   7.113
  432POPC   D2A 1050   5.404  11.601   6.629
  432POPC   C3A 1051   5.564  12.027   6.423
  432POPC   C4A 1052   5.377  12.316   6.130
  432POPC   C1B 1053   5.749  11.972   6.949
  432POPC   C2B 1054   6.028  12.150   6.569
  432POPC   C3B 1055   5.971  12.048   6.121
  432POPC   C4B 1056   6.321  12.052   5.780
  433POPC   NC3 1057   8.768   0.387   8.107
  433POPC   PO4 1058   8.637   0.059   8.119
  433POPC   GL1 1059   8.771   0.093   7.764
  433POPC   GL2 1060   8.518   0.056   7.664
  433POPC   C1A 1061   9.088  -0.111   7.516
  433POPC   D2A 1062   9.057  -0.272   7.122
  433POPC   C3A 1063   9.258  -0.378   6.739
  433POPC   C4A 1064   9.606  -0.619   6.538
  433POPC   C1B 1065   8.602   0.008   7.206
  433POPC   C2B 1066   8.735   0.053   6.762
  433POPC   C3B 1067   8.887  -0.076   6.354
  433POPC   C4B 1068   8.811   0.049   5.934
  434POPC   NC3 1069   0.102   7.532   8.382
  434POPC   PO4 1070   0.362   7.806   8.174
  434POPC   GL1 1071   0.277   7.763   7.726
  434POPC   GL2 1072   0.042   7.937   7.682
  434POPC   C1A 1073   0.375   7.636   7.244
  434POPC   D2A 1074   0.230   7.853   6.855
  434POPC   C3A 1075   0.401   7.815   6.455
  434POPC   C4A 1076   0.604   7.842   6.046
  434POPC   C1B 1077   0.197   8.150   7.319
  434POPC   C2B 1078   0.254   8.346   6.922
  434POPC   C3B 1079   0.166   8.407   6.468
  434POPC   C4B 1080   0.153   8.137   6.107
  435POPC   NC3 1081  12.576   2.005   8.259
  435POPC   PO4 1082  12.287   2.007   7.999
  435POPC   GL1 1083  12.342   1.917   7.615
  435POPC   GL2 1084  12.290   2.122   7.424
  435POPC   C1A 1085  12.165   1.654   7.291
  435POPC   D2A 1086  12.162   1.405   6.887
  435POPC   C3A 1087  12.084   1.175   6.521
  435POPC   C4A 1088  11.883   1.039   6.124
  435POPC   C1B 1089  12.609   2.058   7.039
  435POPC   C2B 1090  12.556   2.068   6.595
  435POPC   C3B 1091  12.427   2.285   6.181
  435POPC   C4B 1092  12.054   2.571   6.162
  436POPC   NC3 1093  13.507  11.290   8.254
  436POPC   PO4 1094  13.774  11.563   8.398
  436POPC   GL1 1095  13.886  11.622   7.921
  436POPC   GL2 1096  14.161  11.424   7.784
  436POPC   C1A 1097  13.650  11.785   7.576
  436POPC   D2A 1098  13.517  11.663   7.126
  436POPC   C3A 1099  13.834  11.658   6.811
  436POPC   C4A 1100  14.102  11.622   6.432
  436POPC   C1B 1101  14.317  11.452   7.364
  436POPC   C2B 1102  14.439  11.736   7.022
  436POPC   C3B 1103  14.583  11.638   6.644
  436POPC   C4B 1104  14.772  11.365   6.297
  437POPC   NC3 1105  12.618   3.547   8.089
  437POPC   PO4 1106  12.228   3.383   8.183
  437POPC   GL1 1107  12.258   3.411   7.850
  437POPC   GL2 1108  12.498   3.232   7.676
  437POPC   C1A 1109  11.908   3.443   7.499
  437POPC   D2A 1110  11.733   3.330   7.098
  437POPC   C3A 1111  11.232   3.264   7.024
  437POPC   C4A 1112  10.984   3.464   6.701
  437POPC   C1B 1113  12.173   3.063   7.330
  437POPC   C2B 1114  12.174   2.899   6.898
  437POPC   C3B 1115  12.143   3.136   6.466
  437POPC   C4B 1116  11.854   3.296   6.190
  438POPC   NC3 1117   0.860   2.098   7.640
  438POPC   PO4 1118   0.468   2.213   7.633
  438POPC   GL1 1119   0.189   2.044   7.360
  438POPC   GL2 1120   0.318   1.720   7.413
  438POPC   C1A 1121   0.005   2.129   6.957
  438POPC   D2A 1122  -0.382   2.018   6.700
  438POPC   C3A 1123  -0.442   2.053   6.222
  438POPC   C4A 1124  -0.423   1.983   5.771
  438POPC   C1B 1125   0.485   1.958   7.039
  438POPC   C2B 1126   0.660   2.036   6.611
  438POPC   C3B 1127   0.780   2.033   6.138
  438POPC   C4B 1128   0.873   2.208   5.720
  439POPC   NC3 1129  10.127   1.685   8.066
  439POPC   PO4 1130   9.811   1.851   8.228
  439POPC   GL1 1131   9.662   1.828   7.831
  439POPC   GL2 1132   9.819   2.040   7.728
  439POPC   C1A 1133   9.869   1.426   7.640
  439POPC   D2A 1134   9.914   1.137   7.277
  439POPC   C3A 1135   9.663   1.027   6.921
  439POPC   C4A 1136   9.691   0.897   6.474
  439POPC   C1B 1137   9.914   2.052   7.291
  439POPC   C2B 1138  10.266   2.008   6.952
  439POPC   C3B 1139  10.558   2.105   6.577
  439POPC   C4B 1140  10.849   2.258   6.228
  440POPC   NC3 1141   0.194   0.815   7.676
  440POPC   PO4 1142   0.557   0.902   7.740
  440POPC   GL1 1143   0.591   1.054   7.395
  440POPC   GL2 1144   0.616   1.329   7.352
  440POPC   C1A 1145   0.574   0.959   6.940
  440POPC   D2A 1146   0.489   0.603   6.696
  440POPC   C3A 1147   0.637   0.157   6.816
  440POPC   C4A 1148   0.831  -0.231   6.983
  440POPC   C1B 1149   0.625   1.481   6.944
  440POPC   C2B 1150   0.592   1.566   6.517
  440POPC   C3B 1151   0.552   1.608   6.047
  440POPC   C4B 1152   0.479   1.899   5.708
  441POPC   NC3 1153   3.059   3.996   8.337
  441POPC   PO4 1154   2.908   4.194   8.026
  441POPC   GL1 1155   3.086   4.315   7.553
  441POPC   GL2 1156   2.985   4.121   7.455
  441POPC   C1A 1157   3.390   4.334   7.167
  441POPC   D2A 1158   3.558   4.517   6.758
  441POPC   C3A 1159   3.560   4.405   6.295
  441POPC   C4A 1160   3.809   4.526   5.909
  441POPC   C1B 1161   3.017   3.999   6.981
  441POPC   C2B 1162   3.333   4.061   6.666
  441POPC   C3B 1163   3.780   4.118   6.575
  441POPC   C4B 1164   4.173   4.231   6.737
  442POPC   NC3 1165   0.940   1.179   7.642
  442POPC   PO4 1166   0.856   1.583   7.686
  442POPC   GL1 1167   0.819   1.776   7.289
  442POPC   GL2 1168   1.129   1.639   7.243
  442POPC   C1A 1169   1.045   2.111   7.051
  442POPC   D2A 1170   1.147   2.192   6.628
  442POPC   C3A 1171   1.463   1.982   6.387
  442POPC   C4A 1172   1.904   1.858   6.419
  442POPC   C1B 1173   1.015   1.720   6.811
  442POPC   C2B 1174   1.062   1.630   6.337
  442POPC   C3B 1175   1.368   1.730   5.994
  442POPC   C4B 1176   1.655   1.617   5.677
  443POPC   NC3 1177  10.959   6.082   8.007
  443POPC   PO4 1178  10.625   6.080   8.266
  443POPC   GL1 1179  10.549   6.139   7.850
  443POPC   GL2 1180  10.381   6.397   7.889
  443POPC   C1A 1181  10.777   5.806   7.556
  443POPC   D2A 1182  10.777   5.705   7.062
  443POPC   C3A 1183  10.859   6.083   6.801
  443POPC   C4A 1184  10.704   6.549   6.680
  443POPC   C1B 1185  10.504   6.648   7.508
  443POPC   C2B 1186  10.511   6.826   7.045
  443POPC   C3B 1187  10.476   7.144   6.756
  443POPC   C4B 1188  10.584   7.453   6.393
  444POPC   NC3 1189   7.444  13.566   8.023
  444POPC   PO4 1190   7.583  13.950   8.097
  444POPC   GL1 1191   7.550  13.957   7.747
  444POPC   GL2 1192   7.325  14.104   7.658
  444POPC   C1A 1193   7.722  14.067   7.349
  444POPC   D2A 1194   7.784  13.872   6.851
  444POPC   C3A 1195   7.822  13.836   6.349
  444POPC   C4A 1196   7.789  13.925   5.905
  444POPC   C1B 1197   7.195  14.299   7.244
  444POPC   C2B 1198   7.467  14.296   6.914
  444POPC   C3B 1199   7.435  14.216   6.401
  444POPC   C4B 1200   7.260  14.293   5.976
  445POPC   NC3 1201   7.595   5.483   8.452
  445POPC   PO4 1202   7.938   5.520   8.223
  445POPC   GL1 1203   8.136   5.299   7.992
  445POPC   GL2 1204   8.341   5.484   7.922
  445POPC   C1A 1205   8.031   5.251   7.495
  445POPC   D2A 1206   7.870   5.089   7.070
  445POPC   C3A 1207   8.167   4.880   6.791
  445POPC   C4A 1208   8.231   4.583   6.486
  445POPC   C1B 1209   8.391   5.647   7.483
  445POPC   C2B 1210   8.341   5.447   7.098
  445POPC   C3B 1211   8.148   5.460   6.696
  445POPC   C4B 1212   8.257   5.538   6.217
  446POPC   NC3 1213   9.068   4.415   8.569
  446POPC   PO4 1214   8.660   4.509   8.556
  446POPC   GL1 1215   8.796   4.681   8.186
  446POPC   GL2 1216   8.609   4.991   8.159
  446POPC   C1A 1217   8.759   4.438   7.750
  446POPC   D2A 1218   9.032   4.521   7.375
  446POPC   C3A 1219   8.978   4.708   6.930
  446POPC   C4A 1220   9.259   4.780   6.623
  446POPC   C1B 1221   8.481   5.019   7.709
  446POPC   C2B 1222   8.659   4.916   7.259
  446POPC   C3B 1223   8.653   5.141   6.870
  446POPC   C4B 1224   8.449   5.103   6.429
  447POPC   NC3 1225  10.488   4.749   8.456
  447POPC   PO4 1226  10.821   4.601   8.346
  447POPC   GL1 1227  10.769   4.738   7.924
  447POPC   GL2 1228  10.594   4.579   7.906
  447POPC   C1A 1229  11.034   4.778   7.581
  447POPC   D2A 1230  11.232   4.850   7.159
  447POPC   C3A 1231  11.201   4.608   6.771
  447POPC   C4A 1232  11.144   4.567   6.278
  447POPC   C1B 1233  10.553   4.741   7.540
  447POPC   C2B 1234  10.348   4.813   7.113
  447POPC   C3B 1235  10.232   4.850   6.680
  447POPC   C4B 1236  10.012   4.975   6.249
  448POPC   NC3 1237   7.962  13.442   8.779
  448POPC   PO4 1238   8.210  13.192   8.653
  448POPC   GL1 1239   8.067  13.105   8.365
  448POPC   GL2 1240   8.341  13.181   8.176
  448POPC   C1A 1241   7.905  13.223   7.964
  448POPC   D2A 1242   7.772  13.491   7.643
  448POPC   C3A 1243   7.928  13.387   7.142
  448POPC   C4A 1244   7.901  13.440   6.686
  448POPC   C1B 1245   8.449  12.931   7.808
  448POPC   C2B 1246   8.701  12.806   7.495
  448POPC   C3B 1247   8.929  12.783   7.079
  448POPC   C4B 1248   8.915  12.591   6.642
  449POPC   NC3 1249   9.727   6.067   8.101
  449POPC   PO4 1250   9.851   5.635   8.164
  449POPC   GL1 1251   9.912   5.756   7.784
  449POPC   GL2 1252   9.603   5.759   7.733
  449POPC   C1A 1253  10.327   5.865   7.540
  449POPC   D2A 1254  10.489   6.193   7.310
  449POPC   C3A 1255  10.321   6.352   6.935
  449POPC   C4A 1256  10.113   6.656   6.551
  449POPC   C1B 1257   9.285   5.666   7.427
  449POPC   C2B 1258   9.287   5.671   6.943
  449POPC   C3B 1259   9.275   5.608   6.474
  449POPC   C4B 1260   9.289   5.698   6.011
  450POPC   NC3 1261   2.887   9.630   8.103
  450POPC   PO4 1262   2.785  10.011   8.036
  450POPC   GL1 1263   2.585   9.928   7.756
  450POPC   GL2 1264   2.792   9.966   7.561
  450POPC   C1A 1265   2.350   9.906   7.360
  450POPC   D2A 1266   2.626   9.823   6.985
  450POPC   C3A 1267   2.597   9.666   6.571
  450POPC   C4A 1268   2.551   9.768   6.139
  450POPC   C1B 1269   3.105   9.896   7.223
  450POPC   C2B 1270   3.078   9.800   6.800
  450POPC   C3B 1271   3.075   9.818   6.307
  450POPC   C4B 1272   2.912  10.226   6.118
  451POPC   NC3 1273  12.913   8.589   8.172
  451POPC   PO4 1274  12.969   8.938   8.403
  451POPC   GL1 1275  12.865   9.002   8.015
  451POPC   GL2 1276  13.110   9.214   7.958
  451POPC   C1A 1277  13.131   8.873   7.672
  451POPC   D2A 1278  13.595   8.774   7.628
  451POPC   C3A 1279  13.585   8.999   7.189
  451POPC   C4A 1280  13.632   9.446   7.012
  451POPC   C1B 1281  13.212   9.636   7.751
  451POPC   C2B 1282  13.230   9.769   7.292
  451POPC   C3B 1283  13.335   9.834   6.835
  451POPC   C4B 1284  13.208   9.497   6.569
  452POPC   NC3 1285  12.054   8.820   8.314
  452POPC   PO4 1286  12.036   8.472   8.507
  452POPC   GL1 1287  12.084   8.455   8.022
  452POPC   GL2 1288  11.815   8.313   7.999
  452POPC   C1A 1289  12.145   8.621   7.600
  452POPC   D2A 1290  12.010   8.759   7.212
  452POPC   C3A 1291  11.924   9.199   7.203
  452POPC   C4A 1292  11.799   9.638   7.217
  452POPC   C1B 1293  11.740   8.223   7.537
  452POPC   C2B 1294  11.572   8.458   7.122
  452POPC   C3B 1295  11.538   8.757   6.771
  452POPC   C4B 1296  11.794   9.040   6.492
  453POPC   NC3 1297   2.230   3.366   7.931
  453POPC   PO4 1298   2.142   2.968   7.832
  453POPC   GL1 1299   2.269   3.042   7.456
  453POPC   GL2 1300   2.548   3.176   7.542
  453POPC   C1A 1301   2.275   3.030   6.983
  453POPC   D2A 1302   2.128   3.093   6.580
  453POPC   C3A 1303   2.318   2.849   6.216
  453POPC   C4A 1304   2.160   2.674   5.815
  453POPC   C1B 1305   2.645   2.850   7.234
  453POPC   C2B 1306   2.717   2.507   6.965
  453POPC   C3B 1307   2.592   2.137   6.704
  453POPC   C4B 1308   2.172   2.131   6.862
  454POPC   NC3 1309  11.294  10.048   8.439
  454POPC   PO4 1310  11.031  10.335   8.355
  454POPC   GL1 1311  10.948  10.070   8.083
  454POPC   GL2 1312  10.932  10.099   7.800
  454POPC   C1A 1313  10.922   9.648   8.006
  454POPC   D2A 1314  11.060   9.229   8.089
  454POPC   C3A 1315  10.991   8.906   7.762
  454POPC   C4A 1316  11.154   8.733   7.383
  454POPC   C1B 1317  10.798   9.905   7.445
  454POPC   C2B 1318  10.772   9.736   7.042
  454POPC   C3B 1319  10.809   9.425   6.682
  454POPC   C4B 1320  10.909   9.127   6.316
  455POPC   NC3 1321   7.910  12.410   8.765
  455POPC   PO4 1322   7.942  12.075   8.606
  455POPC   GL1 1323   7.820  12.146   8.253
  455POPC   GL2 1324   7.677  12.027   8.022
  455POPC   C1A 1325   7.688  12.503   7.908
  455POPC   D2A 1326   7.909  12.826   7.660
  455POPC   C3A 1327   7.883  12.818   7.212
  455POPC   C4A 1328   8.024  12.808   6.760
  455POPC   C1B 1329   7.380  12.084   7.635
  455POPC   C2B 1330   7.366  11.995   7.208
  455POPC   C3B 1331   7.454  12.123   6.774
  455POPC   C4B 1332   7.449  12.148   6.290
  456POPC   NC3 1333  10.428   8.996   8.671
  456POPC   PO4 1334  10.762   8.845   8.538
  456POPC   GL1 1335  10.896   8.730   8.189
  456POPC   GL2 1336  11.101   8.698   8.170
  456POPC   C1A 1337  10.817   8.425   7.811
  456POPC   D2A 1338  10.667   8.006   7.616
  456POPC   C3A 1339  10.459   7.907   7.260
  456POPC   C4A 1340  10.535   7.763   6.826
  456POPC   C1B 1341  11.376   8.497   7.846
  456POPC   C2B 1342  11.202   8.259   7.442
  456POPC   C3B 1343  10.808   8.298   7.220
  456POPC   C4B 1344  10.655   8.238   6.812
  457POPC   NC3 1345   4.522   1.877   7.849
  457POPC   PO4 1346   4.871   1.715   7.932
  457POPC   GL1 1347   4.810   1.380   7.700
  457POPC   GL2 1348   4.546   1.483   7.517
  457POPC   C1A 1349   5.000   1.613   7.284
  457POPC   D2A 1350   5.136   1.798   6.915
  457POPC   C3A 1351   5.568   1.884   6.764
  457POPC   C4A 1352   5.682   1.804   6.352
  457POPC   C1B 1353   4.536   1.573   7.054
  457POPC   C2B 1354   4.734   1.704   6.659
  457POPC   C3B 1355   4.892   1.993   6.380
  457POPC   C4B 1356   4.987   2.434   6.263
  458POPC   NC3 1357  13.950  11.984   8.196
  458POPC   PO4 1358  14.281  12.005   8.325
  458POPC   GL1 1359  14.270  11.866   7.941
  458POPC   GL2 1360  14.327  12.097   7.831
  458POPC   C1A 1361  14.636  11.725   7.633
  458POPC   D2A 1362  14.857  11.958   7.339
  458POPC   C3A 1363  14.908  11.915   6.876
  458POPC   C4A 1364  15.009  12.056   6.423
  458POPC   C1B 1365  14.145  11.981   7.371
  458POPC   C2B 1366  14.231  12.183   6.938
  458POPC   C3B 1367  13.949  12.308   6.578
  458POPC   C4B 1368  13.712  11.963   6.341
  459POPC   NC3 1369   4.830   7.341   7.888
  459POPC   PO4 1370   4.761   7.744   7.836
  459POPC   GL1 1371   5.035   7.729   7.568
  459POPC   GL2 1372   4.914   7.606   7.350
  459POPC   C1A 1373   5.317   8.058   7.314
  459POPC   D2A 1374   5.583   8.003   6.933
  459POPC   C3A 1375   5.522   7.673   6.610
  459POPC   C4A 1376   5.174   7.372   6.459
  459POPC   C1B 1377   4.494   7.785   7.193
  459POPC   C2B 1378   4.475   7.829   6.753
  459POPC   C3B 1379   4.692   7.731   6.355
  459POPC   C4B 1380   4.753   7.461   5.998
  460POPC   NC3 1381   3.388   8.913   8.076
  460POPC   PO4 1382   3.116   9.202   8.085
  460POPC   GL1 1383   3.125   9.221   7.775
  460POPC   GL2 1384   3.122   9.505   7.672
  460POPC   C1A 1385   3.197   8.832   7.546
  460POPC   D2A 1386   3.203   8.793   7.133
  460POPC   C3A 1387   3.581   8.748   6.836
  460POPC   C4A 1388   3.850   8.604   6.495
  460POPC   C1B 1389   2.697   9.509   7.409
  460POPC   C2B 1390   2.341   9.438   7.149
  460POPC   C3B 1391   2.035   9.545   6.769
  460POPC   C4B 1392   2.042   9.534   6.312
  461POPC   NC3 1393   3.772   4.130   7.956
  461POPC   PO4 1394   4.070   4.364   8.118
  461POPC   GL1 1395   4.133   4.362   7.681
  461POPC   GL2 1396   4.259   4.615   7.646
  461POPC   C1A 1397   4.310   4.073   7.351
  461POPC   D2A 1398   4.376   3.835   6.966
  461POPC   C3A 1399   4.725   3.813   6.649
  461POPC   C4A 1400   4.672   4.020   6.251
  461POPC   C1B 1401   4.638   4.428   7.470
  461POPC   C2B 1402   5.085   4.251   7.453
  461POPC   C3B 1403   5.524   4.046   7.271
  461POPC   C4B 1404   5.715   4.153   6.864
  462POPC   NC3 1405  13.081   3.458   8.260
  462POPC   PO4 1406  12.921   3.154   8.082
  462POPC   GL1 1407  12.954   3.396   7.795
  462POPC   GL2 1408  13.223   3.432   7.775
  462POPC   C1A 1409  12.972   3.476   7.314
  462POPC   D2A 1410  12.895   3.828   7.075
  462POPC   C3A 1411  12.483   3.955   6.903
  462POPC   C4A 1412  12.405   4.097   6.459
  462POPC   C1B 1413  13.412   3.616   7.357
  462POPC   C2B 1414  13.354   3.400   6.937
  462POPC   C3B 1415  13.496   3.377   6.510
  462POPC   C4B 1416  13.498   3.469   6.027
  463POPC   NC3 1417   1.625  12.169   7.936
  463POPC   PO4 1418   2.000  12.302   7.972
  463POPC   GL1 1419   2.228  12.248   7.592
  463POPC   GL2 1420   2.464  12.089   7.799
  463POPC   C1A 1421   2.138  12.074   7.185
  463POPC   D2A 1422   1.953  11.770   6.922
  463POPC   C3A 1423   1.858  11.492   6.562
  463POPC   C4A 1424   1.906  11.454   6.140
  463POPC   C1B 1425   2.362  11.729   7.506
  463POPC   C2B 1426   2.447  11.696   7.089
  463POPC   C3B 1427   2.340  11.663   6.639
  463POPC   C4B 1428   2.041  11.913   6.348
  464POPC   NC3 1429   3.819   0.343   7.887
  464POPC   PO4 1430   3.838  -0.031   7.997
  464POPC   GL1 1431   3.974   0.020   7.593
  464POPC   GL2 1432   4.321   0.002   7.579
  464POPC   C1A 1433   4.125   0.149   7.145
  464POPC   D2A 1434   4.525   0.290   6.917
  464POPC   C3A 1435   4.569   0.569   6.554
  464POPC   C4A 1436   4.383   0.831   6.247
  464POPC   C1B 1437   4.620  -0.059   7.247
  464POPC   C2B 1438   4.971   0.019   6.990
  464POPC   C3B 1439   5.071   0.094   6.565
  464POPC   C4B 1440   5.446   0.073   6.237
  465POPC   NC3 1441  13.364  13.644   7.898
  465POPC   PO4 1442  13.760  13.449   7.829
  465POPC   GL1 1443  13.740  13.513   7.469
  465POPC   GL2 1444  13.956  13.291   7.381
  465POPC   C1A 1445  13.445  13.321   7.198
  465POPC   D2A 1446  13.046  13.145   7.086
  465POPC   C3A 1447  12.890  12.832   6.766
  465POPC   C4A 1448  12.848  12.565   6.387
  465POPC   C1B 1449  13.824  12.988   7.046
  465POPC   C2B 1450  13.944  12.835   6.631
  465POPC   C3B 1451  13.887  13.001   6.242
  465POPC   C4B 1452  13.633  13.176   5.895
  466POPC   NC3 1453  11.248   1.594   8.250
  466POPC   PO4 1454  10.880   1.707   8.331
  466POPC   GL1 1455  10.949   1.635   7.886
  466POPC   GL2 1456  10.648   1.654   7.928
  466POPC   C1A 1457  10.790   1.922   7.485
  466POPC   D2A 1458  10.857   2.121   7.045
  466POPC   C3A 1459  11.079   2.040   6.619
  466POPC   C4A 1460  11.333   2.402   6.346
  466POPC   C1B 1461  10.327   1.685   7.565
  466POPC   C2B 1462  10.086   1.607   7.203
  466POPC   C3B 1463   9.800   1.566   6.836
  466POPC   C4B 1464   9.576   1.384   6.479
  467POPC   NC3 1465   9.083   8.880   8.359
  467POPC   PO4 1466   9.363   9.045   8.156
  467POPC   GL1 1467   8.998   9.130   7.936
  467POPC   GL2 1468   9.055   9.356   7.780
  467POPC   C1A 1469   8.674   9.013   7.626
  467POPC   D2A 1470   8.642   8.909   7.152
  467POPC   C3A 1471   8.427   8.787   6.732
  467POPC   C4A 1472   8.315   8.400   6.542
  467POPC   C1B 1473   9.107   9.191   7.321
  467POPC   C2B 1474   9.128   8.982   6.894
  467POPC   C3B 1475   8.915   8.714   6.523
  467POPC   C4B 1476   8.783   8.446   6.218
  468POPC   NC3 1477   4.760   8.919   8.075
  468POPC   PO4 1478   5.038   8.681   8.090
  468POPC   GL1 1479   4.991   8.517   7.767
  468POPC   GL2 1480   4.812   8.686   7.640
  468POPC   C1A 1481   5.359   8.549   7.456
  468POPC   D2A 1482   5.335   8.457   6.995
  468POPC   C3A 1483   5.442   8.698   6.593
  468POPC   C4A 1484   5.273   8.809   6.182
  468POPC   C1B 1485   4.881   8.522   7.261
  468POPC   C2B 1486   4.877   8.136   6.972
  468POPC   C3B 1487   5.073   7.928   6.599
  468POPC   C4B 1488   5.146   7.761   6.205
  469POPC   NC3 1489   8.989  12.364   9.008
  469POPC   PO4 1490   8.871  12.526   8.649
  469POPC   GL1 1491   8.829  12.659   8.252
  469POPC   GL2 1492   8.552  12.637   8.156
  469POPC   C1A 1493   8.969  12.487   7.816
  469POPC   D2A 1494   9.163  12.297   7.479
  469POPC   C3A 1495   9.220  12.365   7.025
  469POPC   C4A 1496   9.449  12.246   6.664
  469POPC   C1B 1497   8.340  12.423   7.764
  469POPC   C2B 1498   8.283  12.583   7.301
  469POPC   C3B 1499   8.499  12.609   6.904
  469POPC   C4B 1500   8.408  12.493   6.481
  470POPC   NC3 1501   3.570   1.483   7.614
  470POPC   PO4 1502   3.556   1.205   7.924
  470POPC   GL1 1503   3.499   0.858   7.678
  470POPC   GL2 1504   3.676   0.687   7.518
  470POPC   C1A 1505   3.232   0.613   7.348
  470POPC   D2A 1506   3.107   0.549   6.950
  470POPC   C3A 1507   2.937   0.893   6.773
  470POPC   C4A 1508   2.967   1.353   6.784
  470POPC   C1B 1509   3.964   0.720   7.154
  470POPC   C2B 1510   4.085   0.781   6.755
  470POPC   C3B 1511   3.893   0.747   6.302
  470POPC   C4B 1512   3.743   0.617   5.901
  471POPC   NC3 1513   6.155   4.631   8.169
  471POPC   PO4 1514   6.100   4.511   7.771
  471POPC   GL1 1515   6.111   4.348   7.442
  471POPC   GL2 1516   5.967   4.394   7.210
  471POPC   C1A 1517   6.459   4.233   7.145
  471POPC   D2A 1518   6.589   3.841   6.920
  471POPC   C3A 1519   6.903   3.491   6.972
  471POPC   C4A 1520   7.182   3.119   7.133
  471POPC   C1B 1521   6.184   4.338   6.766
  471POPC   C2B 1522   6.015   4.098   6.409
  471POPC   C3B 1523   5.613   3.910   6.421
  471POPC   C4B 1524   5.296   3.894   6.756
  472POPC   NC3 1525   0.931   0.171   7.316
  472POPC   PO4 1526   1.290   0.028   7.398
  472POPC   GL1 1527   1.391  -0.100   6.982
  472POPC   GL2 1528   1.223   0.171   6.915
  472POPC   C1A 1529   1.217  -0.152   6.578
  472POPC   D2A 1530   1.181  -0.047   6.160
  472POPC   C3A 1531   0.901  -0.117   5.866
  472POPC   C4A 1532   0.532   0.095   5.717
  472POPC   C1B 1533   1.633   0.167   6.626
  472POPC   C2B 1534   2.003   0.237   6.331
  472POPC   C3B 1535   2.383   0.267   6.067
  472POPC   C4B 1536   2.812   0.359   5.868
  473POPC   NC3 1537   3.737  13.479   8.194
  473POPC   PO4 1538   3.468  13.185   8.251
  473POPC   GL1 1539   3.485  13.119   7.865
  473POPC   GL2 1540   3.697  13.140   7.711
  473POPC   C1A 1541   3.283  13.138   7.467
  473POPC   D2A 1542   3.484  13.186   7.038
  473POPC   C3A 1543   3.613  13.285   6.614
  473POPC   C4A 1544   3.909  13.171   6.224
  473POPC   C1B 1545   3.964  13.097   7.354
  473POPC   C2B 1546   3.999  13.161   6.883
  473POPC   C3B 1547   4.243  13.354   6.566
  473POPC   C4B 1548   4.352  13.379   6.123
  474POPC   NC3 1549  11.915   5.684   8.027
  474POPC   PO4 1550  12.147   5.447   8.216
  474POPC   GL1 1551  12.074   5.139   7.946
  474POPC   GL2 1552  12.144   5.291   7.702
  474POPC   C1A 1553  12.364   4.773   7.838
  474POPC   D2A 1554  12.621   4.366   7.725
  474POPC   C3A 1555  12.798   4.236   7.292
  474POPC   C4A 1556  12.872   4.351   6.836
  474POPC   C1B 1557  12.235   5.414   7.240
  474POPC   C2B 1558  12.485   5.542   6.882
  474POPC   C3B 1559  12.858   5.452   6.659
  474POPC   C4B 1560  12.846   5.253   6.240
  475POPC   NC3 1561   2.903   8.035   7.826
  475POPC   PO4 1562   2.965   7.714   8.011
  475POPC   GL1 1563   2.977   7.717   7.551
  475POPC   GL2 1564   3.225   7.846   7.477
  475POPC   C1A 1565   3.068   7.311   7.309
  475POPC   D2A 1566   2.970   6.831   7.347
  475POPC   C3A 1567   2.628   6.644   7.016
  475POPC   C4A 1568   2.532   6.369   6.690
  475POPC   C1B 1569   3.113   7.737   7.055
  475POPC   C2B 1570   3.038   7.360   6.789
  475POPC   C3B 1571   2.962   6.898   6.715
  475POPC   C4B 1572   3.144   6.474   6.909
  476POPC   NC3 1573   6.087   9.766   8.360
  476POPC   PO4 1574   6.252  10.058   8.168
  476POPC   GL1 1575   6.411  10.102   7.764
  476POPC   GL2 1576   6.566   9.859   7.703
  476POPC   C1A 1577   6.283  10.183   7.318
  476POPC   D2A 1578   6.307  10.069   6.838
  476POPC   C3A 1579   6.201  10.350   6.520
  476POPC   C4A 1580   6.071  10.490   6.122
  476POPC   C1B 1581   6.636   9.735   7.273
  476POPC   C2B 1582   6.631   9.653   6.798
  476POPC   C3B 1583   6.856   9.334   6.576
  476POPC   C4B 1584   7.051   9.248   6.106
  477POPC   NC3 1585   2.005   6.327   7.973
  477POPC   PO4 1586   2.232   6.014   7.975
  477POPC   GL1 1587   2.382   6.228   7.646
  477POPC   GL2 1588   2.514   6.043   7.522
  477POPC   C1A 1589   2.215   6.274   7.223
  477POPC   D2A 1590   1.988   6.627   7.095
  477POPC   C3A 1591   2.181   6.741   6.703
  477POPC   C4A 1592   2.456   6.777   6.297
  477POPC   C1B 1593   2.672   6.133   7.130
  477POPC   C2B 1594   2.862   6.018   6.698
  477POPC   C3B 1595   3.027   5.717   6.411
  477POPC   C4B 1596   3.337   5.662   6.086
  478POPC   NC3 1597   5.459   3.963   7.843
  478POPC   PO4 1598   5.111   3.730   7.887
  478POPC   GL1 1599   5.302   3.536   7.576
  478POPC   GL2 1600   5.222   3.639   7.346
  478POPC   C1A 1601   5.416   3.200   7.259
  478POPC   D2A 1602   5.258   3.037   6.858
  478POPC   C3A 1603   5.110   3.101   6.414
  478POPC   C4A 1604   5.002   3.023   5.988
  478POPC   C1B 1605   4.859   3.901   7.142
  478POPC   C2B 1606   4.612   4.263   6.974
  478POPC   C3B 1607   4.533   4.595   6.727
  478POPC   C4B 1608   4.333   4.942   6.484
  479POPC   NC3 1609   2.893   0.481   7.739
  479POPC   PO4 1610   2.533   0.603   7.825
  479POPC   GL1 1611   2.766   0.839   7.497
  479POPC   GL2 1612   2.685   0.717   7.206
  479POPC   C1A 1613   3.062   1.101   7.213
  479POPC   D2A 1614   3.337   1.470   7.160
  479POPC   C3A 1615   3.577   1.430   6.820
  479POPC   C4A 1616   3.831   1.339   6.481
  479POPC   C1B 1617   2.495   0.605   6.784
  479POPC   C2B 1618   2.364   0.654   6.327
  479POPC   C3B 1619   1.989   0.696   6.042
  479POPC   C4B 1620   1.750   0.606   5.674
  480POPC   NC3 1621  11.558   6.480   8.527
  480POPC   PO4 1622  11.346   6.442   8.180
  480POPC   GL1 1623  11.349   6.418   7.757
  480POPC   GL2 1624  11.680   6.541   7.811
  480POPC   C1A 1625  10.992   6.313   7.526
  480POPC   D2A 1626  10.849   6.448   7.133
  480POPC   C3A 1627  11.219   6.707   6.901
  480POPC   C4A 1628  11.527   7.070   7.049
  480POPC   C1B 1629  11.761   6.868   7.543
  480POPC   C2B 1630  12.019   7.006   7.207
  480POPC   C3B 1631  12.161   6.834   6.803
  480POPC   C4B 1632  12.080   6.588   6.437
  481POPC   NC3 1633  10.360  13.397   8.392
  481POPC   PO4 1634  10.260  13.013   8.474
  481POPC   GL1 1635  10.097  13.084   8.031
  481POPC   GL2 1636   9.929  12.832   7.997
  481POPC   C1A 1637   9.854  13.289   7.736
  481POPC   D2A 1638   9.820  13.486   7.329
  481POPC   C3A 1639   9.701  13.727   6.931
  481POPC   C4A 1640   9.705  13.819   6.491
  481POPC   C1B 1641   9.881  12.775   7.523
  481POPC   C2B 1642  10.058  12.988   7.135
  481POPC   C3B 1643  10.047  13.275   6.764
  481POPC   C4B 1644  10.119  13.413   6.302
  482POPC   NC3 1645   0.983   3.329   7.841
  482POPC   PO4 1646   1.289   3.041   7.817
  482POPC   GL1 1647   1.204   3.170   7.456
  482POPC   GL2 1648   1.424   3.442   7.354
  482POPC   C1A 1649   0.891   2.957   7.198
  482POPC   D2A 1650   0.833   2.937   6.738
  482POPC   C3A 1651   0.371   2.847   6.562
  482POPC   C4A 1652  -0.062   3.002   6.636
  482POPC   C1B 1653   1.340   3.137   6.964
  482POPC   C2B 1654   1.512   3.066   6.543
  482POPC   C3B 1655   1.784   2.985   6.178
  482POPC   C4B 1656   1.788   2.968   5.730
  483POPC   NC3 1657   0.351   4.968   7.859
  483POPC   PO4 1658   0.638   5.165   8.034
  483POPC   GL1 1659   0.632   5.181   7.573
  483POPC   GL2 1660   0.652   5.449   7.547
  483POPC   C1A 1661   0.350   5.089   7.253
  483POPC   D2A 1662   0.136   5.331   6.856
  483POPC   C3A 1663  -0.196   5.042   6.720
  483POPC   C4A 1664  -0.332   4.783   6.379
  483POPC   C1B 1665   0.484   5.667   7.173
  483POPC   C2B 1666   0.412   5.750   6.720
  483POPC   C3B 1667   0.335   5.722   6.265
  483POPC   C4B 1668   0.291   5.883   5.841
  484POPC   NC3 1669   6.453  11.309   8.641
  484POPC   PO4 1670   6.601  11.482   8.308
  484POPC   GL1 1671   6.320  11.606   7.916
  484POPC   GL2 1672   6.630  11.668   7.845
  484POPC   C1A 1673   6.308  11.939   7.513
  484POPC   D2A 1674   6.243  12.022   7.054
  484POPC   C3A 1675   6.506  12.168   6.716
  484POPC   C4A 1676   6.410  12.297   6.326
  484POPC   C1B 1677   6.878  11.977   7.560
  484POPC   C2B 1678   7.094  12.323   7.345
  484POPC   C3B 1679   7.208  12.710   7.033
  484POPC   C4B 1680   7.143  12.907   6.644
  485POPC   NC3 1681   5.933   5.479   8.035
  485POPC   PO4 1682   6.166   5.782   7.863
  485POPC   GL1 1683   6.008   5.685   7.565
  485POPC   GL2 1684   5.724   5.732   7.625
  485POPC   C1A 1685   5.891   5.820   7.141
  485POPC   D2A 1686   5.700   5.551   6.782
  485POPC   C3A 1687   5.886   5.420   6.387
  485POPC   C4A 1688   5.986   5.020   6.089
  485POPC   C1B 1689   5.668   5.389   7.341
  485POPC   C2B 1690   5.693   5.013   7.059
  485POPC   C3B 1691   5.713   4.625   6.817
  485POPC   C4B 1692   5.498   4.383   6.486
  486POPC   NC3 1693   0.576   7.362   7.636
  486POPC   PO4 1694   0.792   7.070   7.528
  486POPC   GL1 1695   0.932   7.167   7.255
  486POPC   GL2 1696   0.937   7.468   7.220
  486POPC   C1A 1697   1.094   7.163   6.819
  486POPC   D2A 1698   1.300   7.120   6.411
  486POPC   C3A 1699   1.637   7.447   6.465
  486POPC   C4A 1700   1.934   7.727   6.311
  486POPC   C1B 1701   0.630   7.525   6.803
  486POPC   C2B 1702   0.678   7.366   6.347
  486POPC   C3B 1703   1.054   7.448   6.062
  486POPC   C4B 1704   1.433   7.720   5.919
  487POPC   NC3 1705   2.442  13.532   7.939
  487POPC   PO4 1706   2.083  13.442   7.809
  487POPC   GL1 1707   1.986  13.398   7.452
  487POPC   GL2 1708   1.682  13.233   7.473
  487POPC   C1A 1709   1.861  13.659   7.089
  487POPC   D2A 1710   1.877  13.634   6.595
  487POPC   C3A 1711   1.808  13.731   6.138
  487POPC   C4A 1712   1.504  13.748   5.789
  487POPC   C1B 1713   1.912  13.090   7.079
  487POPC   C2B 1714   2.118  13.204   6.726
  487POPC   C3B 1715   2.221  13.358   6.320
  487POPC   C4B 1716   2.317  13.792   6.210
  488POPC   NC3 1717   3.287   7.301   7.829
  488POPC   PO4 1718   3.148   6.920   7.871
  488POPC   GL1 1719   3.460   6.719   7.680
  488POPC   GL2 1720   3.644   6.929   7.761
  488POPC   C1A 1721   3.509   6.666   7.183
  488POPC   D2A 1722   3.658   6.537   6.818
  488POPC   C3A 1723   3.353   6.601   6.461
  488POPC   C4A 1724   2.920   6.467   6.379
  488POPC   C1B 1725   3.913   6.890   7.381
  488POPC   C2B 1726   4.000   6.965   6.973
  488POPC   C3B 1727   4.334   6.831   6.625
  488POPC   C4B 1728   4.547   6.829   6.248
  489POPC   NC3 1729   3.212  12.467   8.124
  489POPC   PO4 1730   2.879  12.495   7.944
  489POPC   GL1 1731   2.829  12.284   7.623
  489POPC   GL2 1732   3.171  12.230   7.547
  489POPC   C1A 1733   2.602  12.143   7.262
  489POPC   D2A 1734   2.468  12.126   6.862
  489POPC   C3A 1735   2.051  12.210   6.703
  489POPC   C4A 1736   1.668  12.371   6.439
  489POPC   C1B 1737   3.231  12.159   7.085
  489POPC   C2B 1738   3.402  12.079   6.664
  489POPC   C3B 1739   3.471  11.874   6.227
  489POPC   C4B 1740   3.513  11.462   5.947
  490POPC   NC3 1741   0.069  13.904   7.686
  490POPC   PO4 1742   0.136  14.297   7.763
  490POPC   GL1 1743   0.208  14.322   7.396
  490POPC   GL2 1744   0.368  14.046   7.262
  490POPC   C1A 1745   0.148  14.660   7.082
  490POPC   D2A 1746  -0.014  14.708   6.628
  490POPC   C3A 1747   0.189  14.395   6.324
  490POPC   C4A 1748   0.279  13.972   6.166
  490POPC   C1B 1749   0.147  13.691   7.113
  490POPC   C2B 1750  -0.131  13.414   6.837
  490POPC   C3B 1751  -0.496  13.128   6.733
  490POPC   C4B 1752  -0.888  13.241   6.558
  491POPC   NC3 1753  10.488   1.061   8.898
  491POPC   PO4 1754  10.723   0.927   8.595
  491POPC   GL1 1755  10.819   0.656   8.165
  491POPC   GL2 1756  10.602   0.826   8.098
  491POPC   C1A 1757  10.756   0.650   7.689
  491POPC   D2A 1758  10.731   0.531   7.227
  491POPC   C3A 1759  10.603   0.937   6.965
  491POPC   C4A 1760  10.253   1.202   6.945
  491POPC   C1B 1761  10.392   1.135   7.842
  491POPC   C2B 1762  10.489   1.261   7.419
  491POPC   C3B 1763  10.626   1.603   7.120
  491POPC   C4B 1764  10.718   1.606   6.696
  492POPC   NC3 1765   3.450   6.558   8.090
  492POPC   PO4 1766   3.176   6.361   7.899
  492POPC   GL1 1767   3.483   6.293   7.622
  492POPC   GL2 1768   3.739   6.392   7.632
  492POPC   C1A 1769   3.539   6.124   7.191
  492POPC   D2A 1770   3.762   5.950   6.850
  492POPC   C3A 1771   3.830   6.182   6.485
  492POPC   C4A 1772   3.741   6.011   6.088
  492POPC   C1B 1773   3.944   6.448   7.221
  492POPC   C2B 1774   4.264   6.371   6.901
  492POPC   C3B 1775   4.336   6.364   6.482
  492POPC   C4B 1776   4.175   6.361   6.049
  493POPC   NC3 1777  12.147  11.969   8.041
  493POPC   PO4 1778  12.471  11.866   8.204
  493POPC   GL1 1779  12.470  11.675   7.850
  493POPC   GL2 1780  12.712  11.540   7.948
  493POPC   C1A 1781  12.550  11.546   7.446
  493POPC   D2A 1782  12.533  11.328   7.052
  493POPC   C3A 1783  12.245  10.968   6.877
  493POPC   C4A 1784  11.845  10.882   7.006
  493POPC   C1B 1785  12.488  11.136   7.718
  493POPC   C2B 1786  12.345  10.889   7.366
  493POPC   C3B 1787  12.127  10.485   7.121
  493POPC   C4B 1788  11.843  10.371   6.791
  494POPC   NC3 1789  12.805   9.442   8.332
  494POPC   PO4 1790  12.544   9.666   8.415
  494POPC   GL1 1791  12.561   9.712   8.021
  494POPC   GL2 1792  12.644   9.514   7.852
  494POPC   C1A 1793  12.723  10.004   7.707
  494POPC   D2A 1794  12.766  10.058   7.275
  494POPC   C3A 1795  12.331  10.077   7.045
  494POPC   C4A 1796  12.054   9.838   6.781
  494POPC   C1B 1797  12.900   9.335   7.529
  494POPC   C2B 1798  13.094   9.181   7.122
  494POPC   C3B 1799  13.308   8.978   6.746
  494POPC   C4B 1800  13.264   9.038   6.304
  495POPC   NC3 1801   8.145   2.415   8.328
  495POPC   PO4 1802   8.561   2.477   8.212
  495POPC   GL1 1803   8.668   2.502   7.860
  495POPC   GL2 1804   8.640   2.730   7.710
  495POPC   C1A 1805   8.463   2.207   7.509
  495POPC   D2A 1806   8.200   1.846   7.307
  495POPC   C3A 1807   8.453   1.796   6.958
  495POPC   C4A 1808   8.832   1.883   6.703
  495POPC   C1B 1809   8.620   2.617   7.253
  495POPC   C2B 1810   8.483   2.875   6.870
  495POPC   C3B 1811   8.582   2.906   6.391
  495POPC   C4B 1812   8.366   3.182   6.043
  496POPC   NC3 1813   4.073   9.331   7.761
  496POPC   PO4 1814   4.302   9.094   7.974
  496POPC   GL1 1815   4.613   9.152   7.688
  496POPC   GL2 1816   4.645   9.371   7.676
  496POPC   C1A 1817   4.770   8.991   7.278
  496POPC   D2A 1818   4.540   8.708   6.901
  496POPC   C3A 1819   4.313   8.837   6.479
  496POPC   C4A 1820   4.431   9.138   6.124
  496POPC   C1B 1821   4.606   9.691   7.351
  496POPC   C2B 1822   4.534   9.714   6.911
  496POPC   C3B 1823   4.500   9.558   6.470
  496POPC   C4B 1824   4.676   9.636   6.038
  497POPC   NC3 1825   8.024  11.118   7.673
  497POPC   PO4 1826   7.972  10.714   7.820
  497POPC   GL1 1827   8.234  10.666   7.541
  497POPC   GL2 1828   8.435  10.897   7.482
  497POPC   C1A 1829   8.357  10.282   7.301
  497POPC   D2A 1830   8.217  10.191   6.842
  497POPC   C3A 1831   8.448   9.991   6.559
  497POPC   C4A 1832   8.763   9.686   6.434
  497POPC   C1B 1833   8.207  11.180   7.228
  497POPC   C2B 1834   8.308  11.404   6.899
  497POPC   C3B 1835   8.323  11.380   6.449
  497POPC   C4B 1836   8.686  11.343   6.067
  498POPC   NC3 1837   4.321   7.437   8.148
  498POPC   PO4 1838   4.002   7.220   7.995
  498POPC   GL1 1839   3.925   7.273   7.620
  498POPC   GL2 1840   3.720   7.498   7.614
  498POPC   C1A 1841   4.001   7.477   7.202
  498POPC   D2A 1842   3.865   7.404   6.718
  498POPC   C3A 1843   3.919   7.065   6.396
  498POPC   C4A 1844   3.836   6.636   6.265
  498POPC   C1B 1845   3.601   7.734   7.206
  498POPC   C2B 1846   3.489   7.828   6.807
  498POPC   C3B 1847   3.545   7.748   6.317
  498POPC   C4B 1848   3.818   7.517   6.124
  499POPC   NC3 1849  11.474  11.934   8.573
  499POPC   PO4 1850  11.695  11.684   8.369
  499POPC   GL1 1851  11.719  11.751   8.002
  499POPC   GL2 1852  11.691  12.122   8.076
  499POPC   C1A 1853  12.000  11.526   7.653
  499POPC   D2A 1854  11.954  11.178   7.386
  499POPC   C3A 1855  11.566  11.295   7.136
  499POPC   C4A 1856  11.564  11.700   6.851
  499POPC   C1B 1857  11.415  12.111   7.693
  499POPC   C2B 1858  11.427  12.049   7.273
  499POPC   C3B 1859  11.382  12.266   6.921
  499POPC   C4B 1860  11.037  12.397   6.564
  500POPC   NC3 1861  11.405  12.881   8.819
  500POPC   PO4 1862  11.344  13.051   8.453
  500POPC   GL1 1863  11.590  13.296   8.250
  500POPC   GL2 1864  11.879  13.155   8.170
  500POPC   C1A 1865  11.474  13.277   7.803
  500POPC   D2A 1866  11.565  13.254   7.375
  500POPC   C3A 1867  11.408  13.038   7.079
  500POPC   C4A 1868  11.444  12.805   6.604
  500POPC   C1B 1869  12.020  13.163   7.754
  500POPC   C2B 1870  12.039  13.074   7.270
  500POPC   C3B 1871  11.861  13.078   6.872
  500POPC   C4B 1872  11.557  13.324   6.622
  501POPC   NC3 1873   4.095   4.846   8.032
  501POPC   PO4 1874   3.792   4.692   7.859
  501POPC   GL1 1875   3.803   4.443   7.468
  501POPC   GL2 1876   3.697   4.197   7.474
  501POPC   C1A 1877   4.017   4.526   7.076
  501POPC   D2A 1878   4.006   4.621   6.552
  501POPC   C3A 1879   4.094   4.291   6.208
  501POPC   C4A 1880   4.233   3.879   6.428
  501POPC   C1B 1881   3.860   3.976   7.086
  501POPC   C2B 1882   3.943   3.673   6.766
  501POPC   C3B 1883   3.662   3.598   6.458
  501POPC   C4B 1884   3.772   3.889   6.097
  502POPC   NC3 1885   7.905  13.603   8.279
  502POPC   PO4 1886   8.241  13.703   8.459
  502POPC   GL1 1887   8.269  13.747   8.052
  502POPC   GL2 1888   8.063  13.851   7.828
  502POPC   C1A 1889   8.275  13.423   7.705
  502POPC   D2A 1890   8.287  13.071   7.365
  502POPC   C3A 1891   8.336  13.173   6.935
  502POPC   C4A 1892   8.333  13.289   6.494
  502POPC   C1B 1893   8.131  13.761   7.386
  502POPC   C2B 1894   8.256  13.701   6.934
  502POPC   C3B 1895   8.333  13.848   6.500
  502POPC   C4B 1896   8.255  14.149   6.194
  503POPC   NC3 1897   1.192   0.491   7.574
  503POPC   PO4 1898   1.051   0.773   7.392
  503POPC   GL1 1899   1.355   1.049   7.334
  503POPC   GL2 1900   1.051   1.190   7.127
  503POPC   C1A 1901   1.528   1.388   7.004
  503POPC   D2A 1902   1.497   1.511   6.551
  503POPC   C3A 1903   1.715   1.356   6.118
  503POPC   C4A 1904   1.755   1.118   5.717
  503POPC   C1B 1905   0.912   1.226   6.632
  503POPC   C2B 1906   0.805   1.201   6.152
  503POPC   C3B 1907   0.881   0.939   5.864
  503POPC   C4B 1908   0.719   0.735   5.483
  504POPC   NC3 1909   1.475  11.031   8.181
  504POPC   PO4 1910   1.810  11.081   8.255
  504POPC   GL1 1911   1.769  11.041   7.826
  504POPC   GL2 1912   1.743  11.309   7.724
  504POPC   C1A 1913   1.752  11.081   7.317
  504POPC   D2A 1914   1.879  10.820   6.917
  504POPC   C3A 1915   2.144  10.685   6.544
  504POPC   C4A 1916   2.231  10.810   6.095
  504POPC   C1B 1917   2.040  11.440   7.356
  504POPC   C2B 1918   2.119  11.321   6.915
  504POPC   C3B 1919   2.261  11.214   6.433
  504POPC   C4B 1920   2.630  11.212   6.120
  505POPC   NC3 1921   4.155   6.772   7.859
  505POPC   PO4 1922   4.384   6.921   8.126
  505POPC   GL1 1923   4.787   6.892   7.828
  505POPC   GL2 1924   4.579   6.786   7.604
  505POPC   C1A 1925   5.002   6.609   7.504
  505POPC   D2A 1926   5.193   6.646   7.105
  505POPC   C3A 1927   5.274   6.331   6.746
  505POPC   C4A 1928   5.275   6.289   6.254
  505POPC   C1B 1929   4.610   6.415   7.309
  505POPC   C2B 1930   4.830   6.298   6.957
  505POPC   C3B 1931   4.788   6.116   6.548
  505POPC   C4B 1932   4.980   5.828   6.244
  506POPC   NC3 1933   7.819   9.378   8.219
  506POPC   PO4 1934   7.400   9.298   8.224
  506POPC   GL1 1935   7.268   9.420   7.833
  506POPC   GL2 1936   7.520   9.563   7.807
  506POPC   C1A 1937   7.410   9.195   7.407
  506POPC   D2A 1938   7.129   9.288   6.994
  506POPC   C3A 1939   7.295   9.207   6.544
  506POPC   C4A 1940   7.569   9.165   6.163
  506POPC   C1B 1941   7.577   9.772   7.408
  506POPC   C2B 1942   7.668  10.018   6.982
  506POPC   C3B 1943   7.792  10.370   6.695
  506POPC   C4B 1944   7.520  10.719   6.568
  507POPC   NC3 1945   9.178   5.195   8.742
  507POPC   PO4 1946   9.198   4.955   8.444
  507POPC   GL1 1947   9.619   4.815   8.192
  507POPC   GL2 1948   9.681   4.558   7.956
  507POPC   C1A 1949   9.873   5.029   7.870
  507POPC   D2A 1950  10.090   5.117   7.436
  507POPC   C3A 1951   9.908   5.054   7.015
  507POPC   C4A 1952   9.671   5.086   6.603
  507POPC   C1B 1953   9.415   4.708   7.582
  507POPC   C2B 1954   9.454   4.793   7.125
  507POPC   C3B 1955   9.703   4.604   6.768
  507POPC   C4B 1956   9.996   4.328   6.473
  508POPC   NC3 1957  11.463   6.923   8.131
  508POPC   PO4 1958  11.803   6.829   8.269
  508POPC   GL1 1959  12.066   7.160   8.027
  508POPC   GL2 1960  11.773   7.242   7.920
  508POPC   C1A 1961  12.279   7.214   7.586
  508POPC   D2A 1962  12.275   7.432   7.179
  508POPC   C3A 1963  12.480   7.439   6.747
  508POPC   C4A 1964  12.519   7.116   6.418
  508POPC   C1B 1965  11.682   7.365   7.497
  508POPC   C2B 1966  11.812   7.448   7.049
  508POPC   C3B 1967  12.012   7.395   6.647
  508POPC   C4B 1968  12.008   7.605   6.239
  509POPC   NC3 1969   1.744   4.051   7.690
  509POPC   PO4 1970   2.142   4.070   7.756
  509POPC   GL1 1971   2.194   4.112   7.455
  509POPC   GL2 1972   2.467   4.038   7.299
  509POPC   C1A 1973   1.948   4.245   7.110
  509POPC   D2A 1974   2.027   4.585   6.831
  509POPC   C3A 1975   1.979   4.834   6.432
  509POPC   C4A 1976   1.829   4.918   6.032
  509POPC   C1B 1977   2.550   4.077   6.844
  509POPC   C2B 1978   2.836   3.921   6.504
  509POPC   C3B 1979   2.996   3.672   6.193
  509POPC   C4B 1980   3.396   3.478   6.035
  510POPC   NC3 1981  12.941   7.560   8.175
  510POPC   PO4 1982  12.564   7.385   8.153
  510POPC   GL1 1983  12.618   7.436   7.802
  510POPC   GL2 1984  12.880   7.393   7.692
  510POPC   C1A 1985  12.549   7.773   7.545
  510POPC   D2A 1986  12.398   7.945   7.163
  510POPC   C3A 1987  12.115   8.276   7.121
  510POPC   C4A 1988  11.998   8.525   6.714
  510POPC   C1B 1989  12.830   7.454   7.175
  510POPC   C2B 1990  12.796   7.850   6.880
  510POPC   C3B 1991  12.797   7.863   6.425
  510POPC   C4B 1992  12.572   7.570   6.096
  511POPC   NC3 1993   3.282   3.062   7.904
  511POPC   PO4 1994   3.656   2.984   7.861
  511POPC   GL1 1995   3.843   2.882   7.519
  511POPC   GL2 1996   3.998   3.040   7.412
  511POPC   C1A 1997   3.988   2.437   7.356
  511POPC   D2A 1998   4.037   2.185   7.018
  511POPC   C3A 1999   4.047   2.302   6.603
  511POPC   C4A 2000   3.982   2.088   6.159
  511POPC   C1B 2001   3.908   2.830   7.069
  511POPC   C2B 2002   3.717   2.633   6.692
  511POPC   C3B 2003   3.703   2.499   6.235
  511POPC   C4B 2004   3.829   2.467   5.756
  512POPC   NC3 2005  13.447   0.916   7.685
  512POPC   PO4 2006  13.093   0.980   7.772
  512POPC   GL1 2007  13.055   0.928   7.442
  512POPC   GL2 2008  12.860   1.141   7.368
  512POPC   C1A 2009  13.011   0.789   6.988
  512POPC   D2A 2010  12.601   0.927   6.745
  512POPC   C3A 2011  12.362   0.718   6.405
  512POPC   C4A 2012  12.037   0.439   6.150
  512POPC   C1B 2013  13.046   1.314   7.012
  512POPC   C2B 2014  12.905   1.308   6.539
  512POPC   C3B 2015  12.653   1.143   6.231
  512POPC   C4B 2016  12.364   1.137   5.855
  513POPC   NC3 2017  11.864   0.495   8.164
  513POPC   PO4 2018  11.881   0.095   8.277
  513POPC   GL1 2019  11.884   0.039   7.848
  513POPC   GL2 2020  11.921  -0.306   7.920
  513POPC   C1A 2021  11.633   0.195   7.462
  513POPC   D2A 2022  11.181   0.349   7.453
  513POPC   C3A 2023  10.877   0.097   7.230
  513POPC   C4A 2024  10.899  -0.236   6.965
  513POPC   C1B 2025  11.868  -0.326   7.470
  513POPC   C2B 2026  11.933  -0.421   6.994
  513POPC   C3B 2027  12.098  -0.333   6.523
  513POPC   C4B 2028  12.240  -0.358   6.068
  514POPC   NC3 2029  13.444   6.441   8.088
  514POPC   PO4 2030  13.494   6.785   7.876
  514POPC   GL1 2031  13.637   6.757   7.438
  514POPC   GL2 2032  13.812   6.835   7.271
  514POPC   C1A 2033  13.419   6.625   7.034
  514POPC   D2A 2034  13.221   6.790   6.677
  514POPC   C3A 2035  13.245   6.684   6.244
  514POPC   C4A 2036  13.581   6.780   5.912
  514POPC   C1B 2037  13.721   7.028   6.787
  514POPC   C2B 2038  13.530   7.142   6.362
  514POPC   C3B 2039  13.606   7.252   5.885
  514POPC   C4B 2040  13.798   7.044   5.536
  515POPC   NC3 2041   7.336   3.216   8.614
  515POPC   PO4 2042   7.349   3.049   8.275
  515POPC   GL1 2043   7.346   3.110   7.872
  515POPC   GL2 2044   7.176   2.880   7.812
  515POPC   C1A 2045   7.645   3.303   7.536
  515POPC   D2A 2046   7.939   3.239   7.146
  515POPC   C3A 2047   8.407   3.218   7.155
  515POPC   C4A 2048   8.866   3.088   7.211
  515POPC   C1B 2049   7.516   2.838   7.466
  515POPC   C2B 2050   7.634   2.800   7.037
  515POPC   C3B 2051   7.711   2.930   6.614
  515POPC   C4B 2052   8.046   3.169   6.456
  516POPC   NC3 2053  10.886   3.350   8.874
  516POPC   PO4 2054  11.115   3.440   8.581
  516POPC   GL1 2055  10.940   3.420   8.227
  516POPC   GL2 2056  11.207   3.437   8.025
  516POPC   C1A 2057  10.866   3.789   7.915
  516POPC   D2A 2058  10.590   4.068   7.667
  516POPC   C3A 2059  10.398   4.311   7.321
  516POPC   C4A 2060  10.400   4.347   6.899
  516POPC   C1B 2061  10.792   3.314   7.832
  516POPC   C2B 2062  10.525   3.382   7.445
  516POPC   C3B 2063  10.328   3.434   6.994
  516POPC   C4B 2064  10.344   3.533   6.534
  517POPC   NC3 2065   9.321   6.763   8.512
  517POPC   PO4 2066   9.179   7.119   8.374
  517POPC   GL1 2067   9.494   7.005   8.083
  517POPC   GL2 2068   9.516   7.298   7.945
  517POPC   C1A 2069   9.709   6.982   7.631
  517POPC   D2A 2070   9.959   6.710   7.300
  517POPC   C3A 2071   9.844   6.468   6.940
  517POPC   C4A 2072   9.891   6.236   6.523
  517POPC   C1B 2073   9.272   7.335   7.587
  517POPC   C2B 2074   9.159   7.169   7.172
  517POPC   C3B 2075   9.074   7.020   6.720
  517POPC   C4B 2076   9.028   6.909   6.278
  518POPC   NC3 2077   1.234  11.709   8.276
  518POPC   PO4 2078   1.562  11.620   8.095
  518POPC   GL1 2079   1.463  11.754   7.757
  518POPC   GL2 2080   1.213  11.798   7.742
  518POPC   C1A 2081   1.578  11.815   7.320
  518POPC   D2A 2082   1.489  11.503   6.966
  518POPC   C3A 2083   1.018  11.433   6.886
  518POPC   C4A 2084   0.649  11.177   6.712
  518POPC   C1B 2085   1.092  11.476   7.474
  518POPC   C2B 2086   0.764  11.163   7.431
  518POPC   C3B 2087   0.601  10.778   7.432
  518POPC   C4B 2088   0.333  10.553   7.193
  519POPC   NC3 2089   1.861   9.780   7.858
  519POPC   PO4 2090   1.734   9.689   8.196
  519POPC   GL1 2091   1.584   9.413   7.863
  519POPC   GL2 2092   1.409   9.582   7.753
  519POPC   C1A 2093   1.677   9.067   7.588
  519POPC   D2A 2094   1.825   8.919   7.159
  519POPC   C3A 2095   1.677   8.978   6.729
  519POPC   C4A 2096   1.560   8.924   6.273
  519POPC   C1B 2097   1.134   9.466   7.431
  519POPC   C2B 2098   1.135   9.554   6.968
  519POPC   C3B 2099   1.134   9.715   6.553
  519POPC   C4B 2100   1.070  10.038   6.306
  520POPC   NC3 2101   9.986   7.172   8.043
  520POPC   PO4 2102   9.926   7.571   8.171
  520POPC   GL1 2103   9.574   7.804   8.038
  520POPC   GL2 2104   9.627   8.113   7.916
  520POPC   C1A 2105   9.405   7.809   7.574
  520POPC   D2A 2106   9.287   7.653   7.151
  520POPC   C3A 2107   9.381   7.908   6.782
  520POPC   C4A 2108   9.208   8.166   6.441
  520POPC   C1B 2109   9.291   8.304   7.716
  520POPC   C2B 2110   9.047   8.559   7.384
  520POPC   C3B 2111   8.813   8.433   7.001
  520POPC   C4B 2112   8.769   8.137   6.726
  521POPC   NC3 2113  13.572   5.075   8.320
  521POPC   PO4 2114  13.911   5.146   8.161
  521POPC   GL1 2115  13.832   5.196   7.723
  521POPC   GL2 2116  13.907   4.988   7.491
  521POPC   C1A 2117  13.868   5.445   7.333
  521POPC   D2A 2118  13.875   5.817   6.993
  521POPC   C3A 2119  13.786   5.701   6.614
  521POPC   C4A 2120  13.922   5.281   6.352
  521POPC   C1B 2121  13.776   4.774   7.111
  521POPC   C2B 2122  13.521   4.523   6.860
  521POPC   C3B 2123  13.365   4.319   6.462
  521POPC   C4B 2124  12.927   4.183   6.351
  522POPC   NC3 2125   3.858   9.812   8.087
  522POPC   PO4 2126   3.577   9.678   7.856
  522POPC   GL1 2127   3.704   9.637   7.570
  522POPC   GL2 2128   3.547   9.760   7.323
  522POPC   C1A 2129   3.916   9.312   7.246
  522POPC   D2A 2130   4.317   9.211   7.095
  522POPC   C3A 2131   4.657   9.184   6.821
  522POPC   C4A 2132   4.900   9.072   6.470
  522POPC   C1B 2133   3.518   9.606   6.923
  522POPC   C2B 2134   3.469   9.470   6.488
  522POPC   C3B 2135   3.459   9.453   5.976
  522POPC   C4B 2136   3.411   9.588   5.524
  523POPC   NC3 2137   3.720   2.491   7.779
  523POPC   PO4 2138   3.346   2.456   7.831
  523POPC   GL1 2139   3.255   2.531   7.401
  523POPC   GL2 2140   3.519   2.586   7.288
  523POPC   C1A 2141   3.089   2.180   7.140
  523POPC   D2A 2142   2.924   1.799   6.923
  523POPC   C3A 2143   2.810   1.743   6.471
  523POPC   C4A 2144   2.516   1.463   6.247
  523POPC   C1B 2145   3.235   2.639   6.921
  523POPC   C2B 2146   3.262   2.650   6.453
  523POPC   C3B 2147   3.120   2.505   6.027
  523POPC   C4B 2148   2.892   2.126   5.817
  524POPC   NC3 2149   5.465   3.306   8.020
  524POPC   PO4 2150   5.555   2.937   8.101
  524POPC   GL1 2151   5.511   2.915   7.765
  524POPC   GL2 2152   5.200   2.955   7.693
  524POPC   C1A 2153   5.674   2.751   7.361
  524POPC   D2A 2154   5.800   2.926   6.910
  524POPC   C3A 2155   6.181   2.714   6.750
  524POPC   C4A 2156   6.357   2.336   6.683
  524POPC   C1B 2157   5.289   2.554   7.500
  524POPC   C2B 2158   5.071   2.591   7.156
  524POPC   C3B 2159   4.873   2.670   6.761
  524POPC   C4B 2160   4.665   2.822   6.360
  525POPC   NC3 2161   7.987   0.224   8.306
  525POPC   PO4 2162   8.278   0.458   8.305
  525POPC   GL1 2163   8.209   0.353   7.899
  525POPC   GL2 2164   7.862   0.331   7.840
  525POPC   C1A 2165   8.535   0.557   7.617
  525POPC   D2A 2166   8.711   0.983   7.597
  525POPC   C3A 2167   8.932   1.025   7.204
  525POPC   C4A 2168   9.172   1.083   6.808
  525POPC   C1B 2169   8.138   0.366   7.447
  525POPC   C2B 2170   8.460   0.493   7.133
  525POPC   C3B 2171   8.457   0.497   6.721
  525POPC   C4B 2172   8.686   0.382   6.361
  526POPC   NC3 2173   1.178  10.324   8.293
  526POPC   PO4 2174   1.084  10.677   8.271
  526POPC   GL1 2175   1.103  10.816   7.942
  526POPC   GL2 2176   0.936  10.573   7.772
  526POPC   C1A 2177   1.318  11.008   7.553
  526POPC   D2A 2178   1.241  11.084   7.159
  526POPC   C3A 2179   0.883  10.849   7.003
  526POPC   C4A 2180   0.513  10.688   6.764
  526POPC   C1B 2181   1.207  10.547   7.430
  526POPC   C2B 2182   1.430  10.645   7.057
  526POPC   C3B 2183   1.585  10.527   6.567
  526POPC   C4B 2184   1.378  10.466   6.159
  527POPC   NC3 2185   7.115  12.473   9.066
  527POPC   PO4 2186   7.160  12.636   8.698
  527POPC   GL1 2187   7.240  12.530   8.264
  527POPC   GL2 2188   7.248  12.802   8.152
  527POPC   C1A 2189   7.010  12.401   7.855
  527POPC   D2A 2190   6.614  12.480   7.617
  527POPC   C3A 2191   6.601  12.480   7.148
  527POPC   C4A 2192   6.944  12.283   6.868
  527POPC   C1B 2193   7.438  13.042   7.802
  527POPC   C2B 2194   7.472  13.109   7.327
  527POPC   C3B 2195   7.597  13.048   6.915
  527POPC   C4B 2196   7.542  13.078   6.438
  528POPC   NC3 2197   6.697  10.468   8.440
  528POPC   PO4 2198   7.054  10.424   8.329
  528POPC   GL1 2199   6.930  10.466   7.980
  528POPC   GL2 2200   6.673  10.536   7.935
  528POPC   C1A 2201   7.200  10.649   7.590
  528POPC   D2A 2202   7.595  10.679   7.486
  528POPC   C3A 2203   7.693  11.023   7.235
  528POPC   C4A 2204   7.820  11.252   6.909
  528POPC   C1B 2205   6.741  10.358   7.569
  528POPC   C2B 2206   6.832  10.182   7.126
  528POPC   C3B 2207   6.793  10.129   6.682
  528POPC   C4B 2208   6.633  10.310   6.268
  529POPC   NC3 2209   0.833   9.965   8.306
  529POPC   PO4 2210   0.930  10.033   7.965
  529POPC   GL1 2211   0.682   9.859   7.757
  529POPC   GL2 2212   0.604  10.112   7.595
  529POPC   C1A 2213   0.307   9.635   7.588
  529POPC   D2A 2214   0.186   9.558   7.195
  529POPC   C3A 2215   0.154   9.513   6.746
  529POPC   C4A 2216   0.212   9.529   6.298
  529POPC   C1B 2217   0.783  10.305   7.201
  529POPC   C2B 2218   0.979  10.405   6.792
  529POPC   C3B 2219   1.048  10.652   6.514
  529POPC   C4B 2220   1.221  10.965   6.215
  530POPC   NC3 2221  10.373   7.823   8.101
  530POPC   PO4 2222  10.441   7.419   8.150
  530POPC   GL1 2223  10.479   7.268   7.812
  530POPC   GL2 2224  10.403   7.520   7.594
  530POPC   C1A 2225  10.867   7.081   7.579
  530POPC   D2A 2226  11.000   7.025   7.149
  530POPC   C3A 2227  10.970   7.028   6.634
  530POPC   C4A 2228  10.915   7.023   6.163
  530POPC   C1B 2229  10.640   7.414   7.204
  530POPC   C2B 2230  10.987   7.499   6.887
  530POPC   C3B 2231  11.021   7.836   6.586
  530POPC   C4B 2232  11.029   8.285   6.491
  531POPC   NC3 2233  10.551  10.269   8.257
  531POPC   PO4 2234  10.266  10.005   8.406
  531POPC   GL1 2235  10.080   9.978   7.972
  531POPC   GL2 2236  10.348   9.969   7.842
  531POPC   C1A 2237   9.837   9.673   7.795
  531POPC   D2A 2238   9.897   9.541   7.345
  531POPC   C3A 2239  10.206   9.552   7.060
  531POPC   C4A 2240  10.364   9.212   6.766
  531POPC   C1B 2241  10.201   9.983   7.380
  531POPC   C2B 2242   9.956   9.994   7.008
  531POPC   C3B 2243   9.993  10.043   6.522
  531POPC   C4B 2244  10.361  10.333   6.422
  532POPC   NC3 2245   4.626   3.702   7.708
  532POPC   PO4 2246   4.441   3.411   7.887
  532POPC   GL1 2247   4.409   3.266   7.522
  532POPC   GL2 2248   4.257   3.508   7.437
  532POPC   C1A 2249   4.725   3.445   7.216
  532POPC   D2A 2250   5.073   3.504   6.809
  532POPC   C3A 2251   5.114   3.645   6.364
  532POPC   C4A 2252   5.214   4.074   6.193
  532POPC   C1B 2253   4.169   3.319   7.044
  532POPC   C2B 2254   4.208   3.246   6.624
  532POPC   C3B 2255   4.249   3.407   6.265
  532POPC   C4B 2256   4.407   3.734   5.964
  533POPC   NC3 2257   0.038   4.082   7.966
  533POPC   PO4 2258   0.427   4.085   7.897
  533POPC   GL1 2259   0.502   3.778   7.544
  533POPC   GL2 2260   0.480   4.009   7.320
  533POPC   C1A 2261   0.438   3.615   7.066
  533POPC   D2A 2262   0.313   3.952   6.759
  533POPC   C3A 2263   0.534   4.228   6.491
  533POPC   C4A 2264   0.453   4.275   5.987
  533POPC   C1B 2265   0.747   3.973   6.970
  533POPC   C2B 2266   0.794   3.789   6.507
  533POPC   C3B 2267   0.926   3.860   6.099
  533POPC   C4B 2268   1.156   3.952   5.678
  534POPC   NC3 2269  12.156   8.898   8.828
  534POPC   PO4 2270  12.276   9.286   8.774
  534POPC   GL1 2271  12.360   9.158   8.448
  534POPC   GL2 2272  12.253   9.312   8.255
  534POPC   C1A 2273  12.422   8.900   8.058
  534POPC   D2A 2274  12.569   8.855   7.645
  534POPC   C3A 2275  12.452   8.986   7.185
  534POPC   C4A 2276  12.383   8.837   6.766
  534POPC   C1B 2277  12.077   9.148   7.831
  534POPC   C2B 2278  12.364   9.357   7.503
  534POPC   C3B 2279  12.416   9.527   7.078
  534POPC   C4B 2280  12.750   9.824   6.803
  535POPC   NC3 2281   9.078  10.902   7.773
  535POPC   PO4 2282   8.879  10.889   8.118
  535POPC   GL1 2283   8.741  11.223   7.963
  535POPC   GL2 2284   8.947  11.377   7.865
  535POPC   C1A 2285   8.469  11.439   7.620
  535POPC   D2A 2286   8.499  11.681   7.248
  535POPC   C3A 2287   8.751  11.584   6.843
  535POPC   C4A 2288   8.951  11.586   6.461
  535POPC   C1B 2289   8.861  11.184   7.416
  535POPC   C2B 2290   8.632  11.051   7.063
  535POPC   C3B 2291   8.726  11.042   6.654
  535POPC   C4B 2292   9.011  11.088   6.309
  536POPC   NC3 2293  13.626   1.926   7.400
  536POPC   PO4 2294  13.766   1.584   7.514
  536POPC   GL1 2295  13.878   1.669   7.112
  536POPC   GL2 2296  13.581   1.631   6.995
  536POPC   C1A 2297  14.100   1.631   6.672
  536POPC   D2A 2298  14.039   1.556   6.262
  536POPC   C3A 2299  13.560   1.508   6.067
  536POPC   C4A 2300  13.195   1.234   6.136
  536POPC   C1B 2301  13.561   1.483   6.577
  536POPC   C2B 2302  13.757   1.154   6.322
  536POPC   C3B 2303  13.792   0.839   5.896
  536POPC   C4B 2304  13.398   0.674   5.712
  537POPC   NC3 2305   7.061   0.412   8.474
  537POPC   PO4 2306   7.156   0.049   8.323
  537POPC   GL1 2307   7.097  -0.121   7.981
  537POPC   GL2 2308   6.886  -0.345   8.074
  537POPC   C1A 2309   6.796  -0.059   7.601
  537POPC   D2A 2310   6.427   0.081   7.315
  537POPC   C3A 2311   6.278   0.346   6.953
  537POPC   C4A 2312   6.310   0.707   6.658
  537POPC   C1B 2313   6.991  -0.643   7.720
  537POPC   C2B 2314   6.976  -0.703   7.248
  537POPC   C3B 2315   7.189  -0.557   6.902
  537POPC   C4B 2316   7.388  -0.379   6.556
  538POPC   NC3 2317   4.653   8.320   8.067
  538POPC   PO4 2318   4.375   8.576   7.880
  538POPC   GL1 2319   4.399   8.557   7.469
  538POPC   GL2 2320   4.292   8.740   7.312
  538POPC   C1A 2321   4.430   8.280   7.139
  538POPC   D2A 2322   4.225   8.367   6.703
  538POPC   C3A 2323   4.561   8.223   6.440
  538POPC   C4A 2324   4.955   8.306   6.252
  538POPC   C1B 2325   4.020   8.840   6.933
  538POPC   C2B 2326   3.811   9.102   6.568
  538POPC   C3B 2327   3.599   8.979   6.160
  538POPC   C4B 2328   3.349   8.643   6.237
  539POPC   NC3 2329  12.385   0.302   8.112
  539POPC   PO4 2330  12.365   0.718   8.136
  539POPC   GL1 2331  12.241   0.671   7.718
  539POPC   GL2 2332  12.047   0.428   7.700
  539POPC   C1A 2333  12.442   0.678   7.274
  539POPC   D2A 2334  12.626   0.448   6.867
  539POPC   C3A 2335  12.894   0.390   6.586
  539POPC   C4A 2336  13.233   0.089   6.485
  539POPC   C1B 2337  11.898   0.691   7.390
  539POPC   C2B 2338  11.680   0.699   6.940
  539POPC   C3B 2339  11.824   0.665   6.505
  539POPC   C4B 2340  11.577   0.711   6.121
  540POPC   NC3 2341   4.666   8.213   7.597
  540POPC   PO4 2342   4.355   8.057   7.782
  540POPC   GL1 2343   4.174   8.090   7.493
  540POPC   GL2 2344   3.999   7.861   7.453
  540POPC   C1A 2345   3.951   8.410   7.295
  540POPC   D2A 2346   3.680   8.808   7.322
  540POPC   C3A 2347   3.505   9.162   7.053
  540POPC   C4A 2348   3.177   9.384   7.197
  540POPC   C1B 2349   4.060   7.985   7.048
  540POPC   C2B 2350   3.964   7.869   6.635
  540POPC   C3B 2351   4.253   7.525   6.415
  540POPC   C4B 2352   4.634   7.229   6.465
  541POPC   NC3 2353   3.963  11.056   7.838
  541POPC   PO4 2354   3.660  11.236   7.995
  541POPC   GL1 2355   3.578  11.211   7.559
  541POPC   GL2 2356   3.534  10.963   7.450
  541POPC   C1A 2357   3.380  11.490   7.209
  541POPC   D2A 2358   3.660  11.782   7.030
  541POPC   C3A 2359   4.067  11.885   7.205
  541POPC   C4A 2360   4.522  12.095   7.246
  541POPC   C1B 2361   3.778  10.645   7.178
  541POPC   C2B 2362   4.024  10.477   6.823
  541POPC   C3B 2363   4.231  10.167   6.543
  541POPC   C4B 2364   4.239   9.875   6.164
  542POPC   NC3 2365   9.788   4.219   8.340
  542POPC   PO4 2366   9.405   4.151   8.318
  542POPC   GL1 2367   9.261   4.268   7.946
  542POPC   GL2 2368   9.199   4.535   8.060
  542POPC   C1A 2369   8.983   3.962   7.669
  542POPC   D2A 2370   9.122   3.704   7.318
  542POPC   C3A 2371   9.276   3.830   6.902
  542POPC   C4A 2372   9.522   3.630   6.553
  542POPC   C1B 2373   8.994   4.869   7.821
  542POPC   C2B 2374   9.051   5.138   7.403
  542POPC   C3B 2375   9.145   5.220   6.912
  542POPC   C4B 2376   8.995   5.177   6.455
  543POPC   NC3 2377  13.821   5.957   8.019
  543POPC   PO4 2378  13.417   5.989   7.914
  543POPC   GL1 2379  13.186   6.142   7.561
  543POPC   GL2 2380  13.420   6.334   7.496
  543POPC   C1A 2381  13.248   6.059   7.116
  543POPC   D2A 2382  13.592   6.195   6.796
  543POPC   C3A 2383  13.995   6.189   6.536
  543POPC   C4A 2384  14.180   6.310   6.133
  543POPC   C1B 2385  13.814   6.317   7.231
  543POPC   C2B 2386  14.233   6.172   6.999
  543POPC   C3B 2387  14.630   6.133   6.889
  543POPC   C4B 2388  14.973   5.922   6.672
  544POPC   NC3 2389   0.788  12.260   8.100
  544POPC   PO4 2390   1.156  12.155   8.041
  544POPC   GL1 2391   1.208  12.224   7.712
  544POPC   GL2 2392   0.998  12.367   7.624
  544POPC   C1A 2393   1.264  12.224   7.237
  544POPC   D2A 2394   1.223  12.360   6.814
  544POPC   C3A 2395   0.974  12.507   6.460
  544POPC   C4A 2396   0.777  12.455   6.025
  544POPC   C1B 2397   0.989  12.684   7.241
  544POPC   C2B 2398   0.972  12.879   6.827
  544POPC   C3B 2399   0.833  12.962   6.382
  544POPC   C4B 2400   0.887  13.335   6.108
  545POPC   NC3 2401   1.641  13.708   7.623
  545POPC   PO4 2402   1.292  13.565   7.794
  545POPC   GL1 2403   1.223  13.321   7.510
  545POPC   GL2 2404   1.389  13.523   7.264
  545POPC   C1A 2405   1.042  13.245   7.090
  545POPC   D2A 2406   1.017  13.358   6.645
  545POPC   C3A 2407   0.764  13.692   6.445
  545POPC   C4A 2408   0.819  14.125   6.380
  545POPC   C1B 2409   1.481  13.400   6.848
  545POPC   C2B 2410   1.713  13.168   6.482
  545POPC   C3B 2411   1.997  12.867   6.300
  545POPC   C4B 2412   2.094  12.383   6.161
  546POPC   NC3 2413   8.273   4.382   8.210
  546POPC   PO4 2414   7.976   4.344   7.966
  546POPC   GL1 2415   8.089   3.952   7.792
  546POPC   GL2 2416   8.382   4.025   7.801
  546POPC   C1A 2417   7.765   3.800   7.459
  546POPC   D2A 2418   7.864   3.790   6.998
  546POPC   C3A 2419   8.219   3.536   6.854
  546POPC   C4A 2420   8.442   3.517   6.439
  546POPC   C1B 2421   8.580   3.990   7.391
  546POPC   C2B 2422   8.902   4.088   7.061
  546POPC   C3B 2423   9.031   4.259   6.685
  546POPC   C4B 2424   9.169   4.356   6.275
  547POPC   NC3 2425   2.962  11.559   8.404
  547POPC   PO4 2426   2.849  11.233   8.181
  547POPC   GL1 2427   2.842  11.524   7.892
  547POPC   GL2 2428   2.573  11.439   7.810
  547POPC   C1A 2429   2.809  11.774   7.477
  547POPC   D2A 2430   2.965  11.722   7.056
  547POPC   C3A 2431   2.889  11.840   6.606
  547POPC   C4A 2432   2.965  11.721   6.157
  547POPC   C1B 2433   2.593  11.324   7.378
  547POPC   C2B 2434   2.635  11.268   6.904
  547POPC   C3B 2435   2.897  11.292   6.503
  547POPC   C4B 2436   3.137  10.976   6.245
  548POPC   NC3 2437  11.964   1.616   7.894
  548POPC   PO4 2438  11.735   1.681   8.182
  548POPC   GL1 2439  11.547   1.714   7.786
  548POPC   GL2 2440  11.450   1.474   7.837
  548POPC   C1A 2441  11.685   1.751   7.373
  548POPC   D2A 2442  11.684   1.637   6.921
  548POPC   C3A 2443  11.797   1.544   6.533
  548POPC   C4A 2444  12.007   1.531   6.147
  548POPC   C1B 2445  11.178   1.573   7.494
  548POPC   C2B 2446  11.152   1.681   7.043
  548POPC   C3B 2447  11.216   1.604   6.591
  548POPC   C4B 2448  10.944   1.740   6.258
  549POPC   NC3 2449   8.954  10.115   8.286
  549POPC   PO4 2450   8.734   9.962   8.003
  549POPC   GL1 2451   8.710   9.859   7.673
  549POPC   GL2 2452   8.382   9.865   7.555
  549POPC   C1A 2453   9.012   9.831   7.350
  549POPC   D2A 2454   9.210  10.215   7.139
  549POPC   C3A 2455   9.406  10.038   6.697
  549POPC   C4A 2456   9.313   9.945   6.263
  549POPC   C1B 2457   8.579   9.853   7.121
  549POPC   C2B 2458   8.923   9.914   6.854
  549POPC   C3B 2459   8.928  10.257   6.519
  549POPC   C4B 2460   8.838  10.572   6.175
  550POPC   NC3 2461  10.375   5.618   8.486
  550POPC   PO4 2462  10.415   5.248   8.516
  550POPC   GL1 2463  10.355   5.273   8.167
  550POPC   GL2 2464  10.386   5.009   8.020
  550POPC   C1A 2465  10.345   5.426   7.755
  550POPC   D2A 2466  10.422   5.448   7.328
  550POPC   C3A 2467  10.376   5.271   6.907
  550POPC   C4A 2468  10.172   5.346   6.509
  550POPC   C1B 2469  10.729   5.153   7.711
  550POPC   C2B 2470  10.799   5.125   7.239
  550POPC   C3B 2471  11.047   5.249   6.879
  550POPC   C4B 2472  11.484   5.231   6.692
  551POPC   NC3 2473   0.974   6.229   7.819
  551POPC   PO4 2474   0.597   6.298   8.006
  551POPC   GL1 2475   0.564   6.346   7.580
  551POPC   GL2 2476   0.755   6.062   7.421
  551POPC   C1A 2477   0.270   6.561   7.319
  551POPC   D2A 2478   0.118   6.612   6.874
  551POPC   C3A 2479   0.453   6.465   6.603
  551POPC   C4A 2480   0.665   6.141   6.401
  551POPC   C1B 2481   1.027   5.803   7.141
  551POPC   C2B 2482   1.376   5.787   6.925
  551POPC   C3B 2483   1.767   5.779   6.625
  551POPC   C4B 2484   1.954   5.816   6.157
  552POPC   NC3 2485   5.045  10.263   7.889
  552POPC   PO4 2486   5.394  10.252   8.005
  552POPC   GL1 2487   5.504  10.091   7.670
  552POPC   GL2 2488   5.398  10.328   7.509
  552POPC   C1A 2489   5.824   9.898   7.445
  552POPC   D2A 2490   5.972   9.740   7.034
  552POPC   C3A 2491   5.715   9.459   6.764
  552POPC   C4A 2492   5.873   9.039   6.526
  552POPC   C1B 2493   5.327  10.374   6.998
  552POPC   C2B 2494   5.394  10.619   6.639
  552POPC   C3B 2495   5.350  10.788   6.191
  552POPC   C4B 2496   4.944  10.958   5.977
  553POPC   NC3 2497   5.443   8.882   7.835
  553POPC   PO4 2498   5.220   9.203   7.906
  553POPC   GL1 2499   5.196   9.311   7.472
  553POPC   GL2 2500   5.392   9.171   7.364
  553POPC   C1A 2501   5.002   9.411   7.114
  553POPC   D2A 2502   4.986   9.540   6.652
  553POPC   C3A 2503   5.138   9.697   6.291
  553POPC   C4A 2504   5.599   9.708   6.111
  553POPC   C1B 2505   5.458   9.611   7.185
  553POPC   C2B 2506   5.513   9.934   6.817
  553POPC   C3B 2507   5.223  10.218   6.508
  553POPC   C4B 2508   4.943  10.529   6.312
  554POPC   NC3 2509   9.195  13.872   8.854
  554POPC   PO4 2510   9.409  13.941   8.548
  554POPC   GL1 2511   9.577  13.678   8.205
  554POPC   GL2 2512   9.686  13.988   8.120
  554POPC   C1A 2513   9.476  13.571   7.819
  554POPC   D2A 2514   9.353  13.388   7.406
  554POPC   C3A 2515   9.504  13.217   7.015
  554POPC   C4A 2516   9.325  12.965   6.650
  554POPC   C1B 2517   9.676  14.019   7.638
  554POPC   C2B 2518   9.406  14.131   7.302
  554POPC   C3B 2519   9.230  14.064   6.852
  554POPC   C4B 2520   9.350  14.122   6.401
  555POPC   NC3 2521   0.332   8.283   8.376
  555POPC   PO4 2522   0.256   8.569   8.584
  555POPC   GL1 2523  -0.154   8.693   8.414
  555POPC   GL2 2524  -0.034   8.651   8.117
  555POPC   C1A 2525  -0.351   9.014   8.125
  555POPC   D2A 2526  -0.354   9.333   7.759
  555POPC   C3A 2527  -0.240   9.770   7.836
  555POPC   C4A 2528  -0.138  10.185   8.003
  555POPC   C1B 2529  -0.006   8.458   7.699
  555POPC   C2B 2530  -0.140   8.543   7.262
  555POPC   C3B 2531  -0.127   8.636   6.834
  555POPC   C4B 2532  -0.327   8.690   6.396
  556POPC   NC3 2533  13.259  13.185   8.114
  556POPC   PO4 2534  13.156  12.872   8.330
  556POPC   GL1 2535  12.931  12.919   7.898
  556POPC   GL2 2536  12.775  13.120   7.971
  556POPC   C1A 2537  13.102  13.263   7.650
  556POPC   D2A 2538  13.032  13.627   7.396
  556POPC   C3A 2539  13.017  13.565   6.923
  556POPC   C4A 2540  12.835  13.726   6.502
  556POPC   C1B 2541  12.595  13.179   7.537
  556POPC   C2B 2542  12.601  13.010   7.098
  556POPC   C3B 2543  12.349  12.797   6.789
  556POPC   C4B 2544  12.329  12.625   6.363
  557POPC   NC3 2545   0.120   3.619   7.768
  557POPC   PO4 2546   0.375   3.356   7.658
  557POPC   GL1 2547   0.343   3.032   7.441
  557POPC   GL2 2548   0.119   2.886   7.409
  557POPC   C1A 2549   0.431   3.123   7.010
  557POPC   D2A 2550   0.578   3.365   6.601
  557POPC   C3A 2551   0.249   3.265   6.261
  557POPC   C4A 2552  -0.106   2.944   6.121
  557POPC   C1B 2553   0.314   2.609   7.109
  557POPC   C2B 2554   0.224   2.421   6.681
  557POPC   C3B 2555   0.118   2.092   6.409
  557POPC   C4B 2556   0.032   1.979   5.937
  558POPC   NC3 2557  12.467  13.495   8.573
  558POPC   PO4 2558  12.232  13.160   8.601
  558POPC   GL1 2559  12.261  12.826   8.458
  558POPC   GL2 2560  12.523  12.844   8.337
  558POPC   C1A 2561  12.003  12.564   8.127
  558POPC   D2A 2562  12.069  12.418   7.686
  558POPC   C3A 2563  11.906  12.018   7.504
  558POPC   C4A 2564  11.878  11.689   7.241
  558POPC   C1B 2565  12.451  12.733   7.880
  558POPC   C2B 2566  12.412  12.669   7.452
  558POPC   C3B 2567  12.237  12.364   7.116
  558POPC   C4B 2568  11.911  12.100   6.991
  559POPC   NC3 2569  12.066  10.378   8.402
  559POPC   PO4 2570  11.640  10.375   8.488
  559POPC   GL1 2571  11.488  10.331   8.076
  559POPC   GL2 2572  11.825  10.321   7.960
  559POPC   C1A 2573  11.468  10.040   7.763
  559POPC   D2A 2574  11.406   9.563   7.822
  559POPC   C3A 2575  11.179   9.512   7.354
  559POPC   C4A 2576  11.235   9.648   6.906
  559POPC   C1B 2577  11.800  10.274   7.482
  559POPC   C2B 2578  11.545  10.042   7.123
  559POPC   C3B 2579  11.561   9.951   6.646
  559POPC   C4B 2580  11.346   9.676   6.372
  560POPC   NC3 2581   7.663  11.680   8.473
  560POPC   PO4 2582   7.478  11.339   8.504
  560POPC   GL1 2583   7.286  11.260   8.104
  560POPC   GL2 2584   7.205  11.582   8.017
  560POPC   C1A 2585   7.369  11.082   7.639
  560POPC   D2A 2586   7.130  10.977   7.265
  560POPC   C3A 2587   7.372  11.092   6.862
  560POPC   C4A 2588   7.420  11.192   6.411
  560POPC   C1B 2589   7.335  11.545   7.564
  560POPC   C2B 2590   7.386  11.495   7.159
  560POPC   C3B 2591   7.549  11.579   6.694
  560POPC   C4B 2592   7.871  11.516   6.342
  561POPC   NC3 2593   5.915   4.873   7.533
  561POPC   PO4 2594   6.134   5.035   7.848
  561POPC   GL1 2595   6.427   4.948   7.499
  561POPC   GL2 2596   6.534   4.680   7.459
  561POPC   C1A 2597   6.158   4.852   7.129
  561POPC   D2A 2598   6.088   5.256   6.846
  561POPC   C3A 2599   6.325   5.222   6.451
  561POPC   C4A 2600   6.486   4.980   6.081
  561POPC   C1B 2601   6.632   4.691   6.975
  561POPC   C2B 2602   6.448   4.734   6.554
  561POPC   C3B 2603   6.030   4.617   6.372
  561POPC   C4B 2604   5.747   4.473   5.978
  562POPC   NC3 2605   2.133  10.285   8.371
  562POPC   PO4 2606   1.885  10.217   8.063
  562POPC   GL1 2607   1.969  10.580   7.911
  562POPC   GL2 2608   2.152  10.723   8.051
  562POPC   C1A 2609   1.956  10.597   7.483
  562POPC   D2A 2610   2.153  10.437   7.132
  562POPC   C3A 2611   2.563  10.331   6.981
  562POPC   C4A 2612   2.795  10.129   6.649
  562POPC   C1B 2613   2.179  11.001   7.657
  562POPC   C2B 2614   2.286  10.902   7.185
  562POPC   C3B 2615   2.580  10.796   6.834
  562POPC   C4B 2616   2.655  10.825   6.395
  563POPC   NC3 2617   4.467  11.818   8.077
  563POPC   PO4 2618   4.381  11.437   7.996
  563POPC   GL1 2619   4.343  11.309   7.614
  563POPC   GL2 2620   4.322  11.071   7.459
  563POPC   C1A 2621   4.452  11.484   7.182
  563POPC   D2A 2622   4.515  11.671   6.769
  563POPC   C3A 2623   4.453  11.695   6.315
  563POPC   C4A 2624   4.413  11.741   5.841
  563POPC   C1B 2625   4.182  10.929   7.065
  563POPC   C2B 2626   3.817  11.047   6.869
  563POPC   C3B 2627   3.519  11.201   6.585
  563POPC   C4B 2628   3.361  11.598   6.699
  564POPC   NC3 2629   9.425   9.534   8.094
  564POPC   PO4 2630   9.072   9.663   8.189
  564POPC   GL1 2631   9.146   9.783   7.830
  564POPC   GL2 2632   9.198  10.047   7.814
  564POPC   C1A 2633   9.410   9.509   7.531
  564POPC   D2A 2634   9.590   9.065   7.505
  564POPC   C3A 2635   9.471   8.796   7.175
  564POPC   C4A 2636   9.233   8.506   6.832
  564POPC   C1B 2637   9.283  10.439   7.589
  564POPC   C2B 2638   9.210  10.674   7.252
  564POPC   C3B 2639   9.148  10.773   6.773
  564POPC   C4B 2640   9.298  10.666   6.420
  565POPC   NC3 2641   1.700   3.279   7.747
  565POPC   PO4 2642   1.836   3.632   7.907
  565POPC   GL1 2643   2.058   3.574   7.564
  565POPC   GL2 2644   2.310   3.587   7.441
  565POPC   C1A 2645   1.854   3.735   7.196
  565POPC   D2A 2646   1.849   3.964   6.723
  565POPC   C3A 2647   2.149   4.175   6.487
  565POPC   C4A 2648   2.498   4.470   6.488
  565POPC   C1B 2649   2.251   3.596   7.006
  565POPC   C2B 2650   2.219   3.576   6.514
  565POPC   C3B 2651   2.371   3.847   6.186
  565POPC   C4B 2652   2.625   4.161   5.990
  566POPC   NC3 2653   4.052  12.977   8.026
  566POPC   PO4 2654   4.181  12.600   7.996
  566POPC   GL1 2655   4.137  12.730   7.604
  566POPC   GL2 2656   4.024  12.529   7.455
  566POPC   C1A 2657   4.465  12.891   7.315
  566POPC   D2A 2658   4.557  13.037   6.876
  566POPC   C3A 2659   4.980  13.028   6.786
  566POPC   C4A 2660   5.355  13.283   6.845
  566POPC   C1B 2661   4.194  12.574   7.021
  566POPC   C2B 2662   4.080  12.652   6.559
  566POPC   C3B 2663   4.274  12.892   6.307
  566POPC   C4B 2664   4.690  13.192   6.378
  567POPC   NC3 2665   9.865  10.229   8.364
  567POPC   PO4 2666   9.754  10.612   8.337
  567POPC   GL1 2667  10.105  10.653   8.113
  567POPC   GL2 2668  10.177  10.462   7.972
  567POPC   C1A 2669  10.332  10.860   7.737
  567POPC   D2A 2670  10.698  10.847   7.426
  567POPC   C3A 2671  10.559  10.993   7.000
  567POPC   C4A 2672  10.272  11.326   6.785
  567POPC   C1B 2673  10.485  10.412   7.698
  567POPC   C2B 2674  10.544  10.338   7.252
  567POPC   C3B 2675  10.408  10.129   6.897
  567POPC   C4B 2676  10.472   9.821   6.527
  568POPC   NC3 2677   4.707  13.590   7.751
  568POPC   PO4 2678   5.045  13.497   7.891
  568POPC   GL1 2679   5.344  13.397   7.641
  568POPC   GL2 2680   5.563  13.606   7.659
  568POPC   C1A 2681   5.401  12.971   7.397
  568POPC   D2A 2682   5.512  12.518   7.350
  568POPC   C3A 2683   5.455  12.356   6.951
  568POPC   C4A 2684   5.248  12.528   6.559
  568POPC   C1B 2685   5.734  13.428   7.319
  568POPC   C2B 2686   5.828  13.375   6.847
  568POPC   C3B 2687   5.929  13.556   6.432
  568POPC   C4B 2688   5.907  14.030   6.410
  569POPC   NC3 2689   1.520   4.930   7.909
  569POPC   PO4 2690   1.418   4.586   7.714
  569POPC   GL1 2691   1.534   4.386   7.336
  569POPC   GL2 2692   1.339   4.150   7.418
  569POPC   C1A 2693   1.476   4.248   6.877
  569POPC   D2A 2694   1.570   4.392   6.498
  569POPC   C3A 2695   1.850   4.400   6.126
  569POPC   C4A 2696   2.228   4.566   6.033
  569POPC   C1B 2697   1.081   4.380   7.066
  569POPC   C2B 2698   1.006   4.368   6.631
  569POPC   C3B 2699   1.045   4.337   6.242
  569POPC   C4B 2700   1.358   4.517   5.982
  570POPC   NC3 2701   3.252  10.002   7.726
  570POPC   PO4 2702   3.566  10.198   7.850
  570POPC   GL1 2703   3.486  10.304   7.452
  570POPC   GL2 2704   3.335  10.540   7.398
  570POPC   C1A 2705   3.541  10.131   7.018
  570POPC   D2A 2706   3.470  10.010   6.565
  570POPC   C3A 2707   3.744   9.970   6.223
  570POPC   C4A 2708   3.830   9.767   5.803
  570POPC   C1B 2709   3.026  10.407   7.062
  570POPC   C2B 2710   3.138  10.484   6.588
  570POPC   C3B 2711   3.331  10.544   6.153
  570POPC   C4B 2712   3.185  10.487   5.722
  571POPC   NC3 2713  11.473   0.943   9.013
  571POPC   PO4 2714  11.379   0.799   8.665
  571POPC   GL1 2715  11.192   0.753   8.328
  571POPC   GL2 2716  11.387   0.629   8.179
  571POPC   C1A 2717  11.147   1.023   7.982
  571POPC   D2A 2718  10.907   1.139   7.554
  571POPC   C3A 2719  11.028   1.205   7.085
  571POPC   C4A 2720  11.000   1.103   6.658
  571POPC   C1B 2721  11.507   0.738   7.737
  571POPC   C2B 2722  11.327   0.824   7.292
  571POPC   C3B 2723  11.112   0.659   6.958
  571POPC   C4B 2724  11.040   0.630   6.478
  572POPC   NC3 2725   5.050   6.526   8.407
  572POPC   PO4 2726   5.045   6.169   8.232
  572POPC   GL1 2727   5.039   6.114   7.756
  572POPC   GL2 2728   4.807   6.017   7.715
  572POPC   C1A 2729   5.209   6.148   7.330
  572POPC   D2A 2730   5.607   6.281   7.145
  572POPC   C3A 2731   5.736   6.258   6.732
  572POPC   C4A 2732   5.818   6.346   6.294
  572POPC   C1B 2733   4.620   5.879   7.379
  572POPC   C2B 2734   4.676   5.677   6.961
  572POPC   C3B 2735   4.870   5.496   6.563
  572POPC   C4B 2736   4.609   5.286   6.232
  573POPC   NC3 2737  13.706   1.141   8.199
  573POPC   PO4 2738  13.842   1.178   7.798
  573POPC   GL1 2739  13.907   1.010   7.293
  573POPC   GL2 2740  14.090   1.240   7.349
  573POPC   C1A 2741  13.587   1.055   6.944
  573POPC   D2A 2742  13.290   1.004   6.620
  573POPC   C3A 2743  13.344   0.756   6.182
  573POPC   C4A 2744  13.290   0.315   6.066
  573POPC   C1B 2745  14.129   1.201   6.885
  573POPC   C2B 2746  14.335   1.089   6.491
  573POPC   C3B 2747  14.267   1.118   6.048
  573POPC   C4B 2748  13.966   1.290   5.789
  574POPC   NC3 2749   2.623   9.093   8.277
  574POPC   PO4 2750   2.287   9.014   8.356
  574POPC   GL1 2751   2.311   9.015   7.958
  574POPC   GL2 2752   2.495   8.782   7.799
  574POPC   C1A 2753   2.103   9.292   7.611
  574POPC   D2A 2754   1.805   9.625   7.403
  574POPC   C3A 2755   1.561   9.416   7.065
  574POPC   C4A 2756   1.582   9.477   6.582
  574POPC   C1B 2757   2.202   8.827   7.447
  574POPC   C2B 2758   2.340   8.917   7.022
  574POPC   C3B 2759   2.304   9.133   6.644
  574POPC   C4B 2760   2.061   9.014   6.287
  575POPC   NC3 2761   9.134  11.307   8.425
  575POPC   PO4 2762   9.230  11.691   8.408
  575POPC   GL1 2763   9.112  11.804   8.139
  575POPC   GL2 2764   9.304  11.974   8.010
  575POPC   C1A 2765   8.793  11.987   7.834
  575POPC   D2A 2766   8.323  11.930   7.741
  575POPC   C3A 2767   8.230  12.054   7.279
  575POPC   C4A 2768   8.115  12.312   6.876
  575POPC   C1B 2769   9.698  11.974   7.807
  575POPC   C2B 2770   9.924  11.960   7.407
  575POPC   C3B 2771  10.085  11.718   7.000
  575POPC   C4B 2772  10.313  11.781   6.606
  576POPC   NC3 2773   2.040   7.222   7.968
  576POPC   PO4 2774   1.685   7.300   8.119
  576POPC   GL1 2775   1.593   7.220   7.752
  576POPC   GL2 2776   1.756   7.053   7.625
  576POPC   C1A 2777   1.622   7.461   7.329
  576POPC   D2A 2778   1.471   7.461   6.917
  576POPC   C3A 2779   1.152   7.631   6.577
  576POPC   C4A 2780   1.106   7.918   6.233
  576POPC   C1B 2781   1.901   7.063   7.202
  576POPC   C2B 2782   1.989   7.231   6.767
  576POPC   C3B 2783   2.170   7.242   6.380
  576POPC   C4B 2784   2.297   7.193   5.929
  577POPC   NC3 2785  12.982  11.928   8.116
  577POPC   PO4 2786  13.161  12.139   7.861
  577POPC   GL1 2787  12.864  12.444   7.597
  577POPC   GL2 2788  12.897  12.732   7.508
  577POPC   C1A 2789  12.724  12.397   7.194
  577POPC   D2A 2790  12.635  12.335   6.796
  577POPC   C3A 2791  12.266  12.141   6.654
  577POPC   C4A 2792  11.914  11.862   6.550
  577POPC   C1B 2793  13.214  12.682   7.140
  577POPC   C2B 2794  13.357  12.626   6.677
  577POPC   C3B 2795  13.315  12.284   6.414
  577POPC   C4B 2796  13.046  12.095   6.051
  578POPC   NC3 2797   4.817  11.245   7.776
  578POPC   PO4 2798   4.934  11.559   7.590
  578POPC   GL1 2799   4.883  11.278   7.276
  578POPC   GL2 2800   4.717  11.088   7.128
  578POPC   C1A 2801   5.062  11.361   6.893
  578POPC   D2A 2802   4.932  11.525   6.512
  578POPC   C3A 2803   5.125  11.805   6.172
  578POPC   C4A 2804   5.474  11.797   5.825
  578POPC   C1B 2805   4.484  11.170   6.716
  578POPC   C2B 2806   4.534  10.986   6.319
  578POPC   C3B 2807   4.460  10.558   6.017
  578POPC   C4B 2808   4.011  10.352   6.011
  579POPC   NC3 2809  13.582   3.200   8.462
  579POPC   PO4 2810  13.599   3.467   8.234
  579POPC   GL1 2811  13.393   3.749   8.052
  579POPC   GL2 2812  13.561   3.750   7.796
  579POPC   C1A 2813  13.125   3.969   7.727
  579POPC   D2A 2814  12.734   3.794   7.596
  579POPC   C3A 2815  12.402   3.548   7.320
  579POPC   C4A 2816  12.178   3.415   6.920
  579POPC   C1B 2817  13.822   4.023   7.506
  579POPC   C2B 2818  13.892   4.131   7.005
  579POPC   C3B 2819  13.850   4.259   6.600
  579POPC   C4B 2820  13.880   4.260   6.134
  580POPC   NC3 2821   5.672   1.028   8.570
  580POPC   PO4 2822   6.017   0.870   8.486
  580POPC   GL1 2823   5.980   0.722   8.116
  580POPC   GL2 2824   5.702   0.615   8.069
  580POPC   C1A 2825   6.134   1.018   7.821
  580POPC   D2A 2826   6.397   1.310   7.574
  580POPC   C3A 2827   6.452   1.487   7.138
  580POPC   C4A 2828   6.561   1.816   6.854
  580POPC   C1B 2829   5.925   0.504   7.675
  580POPC   C2B 2830   5.920   0.353   7.234
  580POPC   C3B 2831   5.853   0.404   6.778
  580POPC   C4B 2832   5.662   0.520   6.379
  581POPC   NC3 2833  12.973   6.295   7.933
  581POPC   PO4 2834  12.943   6.654   8.049
  581POPC   GL1 2835  12.883   6.748   7.735
  581POPC   GL2 2836  12.865   6.516   7.497
  581POPC   C1A 2837  12.662   6.895   7.341
  581POPC   D2A 2838  12.592   6.981   6.961
  581POPC   C3A 2839  12.750   6.742   6.620
  581POPC   C4A 2840  12.752   6.635   6.127
  581POPC   C1B 2841  12.935   6.528   7.038
  581POPC   C2B 2842  13.126   6.325   6.605
  581POPC   C3B 2843  13.053   6.222   6.158
  581POPC   C4B 2844  12.863   6.128   5.767
  582POPC   NC3 2845   6.389   0.899   8.209
  582POPC   PO4 2846   6.671   0.726   8.460
  582POPC   GL1 2847   6.924   0.692   8.138
  582POPC   GL2 2848   6.870   0.873   8.030
  582POPC   C1A 2849   7.021   0.564   7.696
  582POPC   D2A 2850   6.722   0.498   7.391
  582POPC   C3A 2851   6.753   0.546   6.924
  582POPC   C4A 2852   6.779   0.899   6.663
  582POPC   C1B 2853   6.678   0.920   7.569
  582POPC   C2B 2854   6.591   0.992   7.125
  582POPC   C3B 2855   6.310   1.167   6.771
  582POPC   C4B 2856   6.000   1.404   6.578
  583POPC   NC3 2857   2.571   7.522   8.262
  583POPC   PO4 2858   2.310   7.595   8.003
  583POPC   GL1 2859   2.353   7.481   7.668
  583POPC   GL2 2860   2.614   7.480   7.478
  583POPC   C1A 2861   2.148   7.492   7.251
  583POPC   D2A 2862   1.957   7.709   6.849
  583POPC   C3A 2863   2.062   8.101   6.581
  583POPC   C4A 2864   2.102   8.141   6.085
  583POPC   C1B 2865   2.571   7.701   7.042
  583POPC   C2B 2866   2.409   7.679   6.612
  583POPC   C3B 2867   2.399   7.648   6.176
  583POPC   C4B 2868   2.106   7.658   5.772
  584POPC   NC3 2869   1.744   1.222   8.081
  584POPC   PO4 2870   1.912   1.579   8.053
  584POPC   GL1 2871   1.950   1.574   7.728
  584POPC   GL2 2872   2.257   1.442   7.659
  584POPC   C1A 2873   1.722   1.754   7.319
  584POPC   D2A 2874   1.506   1.906   6.937
  584POPC   C3A 2875   1.666   2.307   6.770
  584POPC   C4A 2876   1.781   2.709   6.845
  584POPC   C1B 2877   2.013   1.362   7.264
  584POPC   C2B 2878   1.942   1.275   6.816
  584POPC   C3B 2879   2.079   1.205   6.393
  584POPC   C4B 2880   2.220   1.221   5.930
  585POPC   NC3 2881   8.993   1.977   8.658
  585POPC   PO4 2882   8.806   2.035   8.305
  585POPC   GL1 2883   8.637   2.061   7.964
  585POPC   GL2 2884   8.635   1.755   7.847
  585POPC   C1A 2885   8.138   2.082   7.862
  585POPC   D2A 2886   7.723   1.931   7.779
  585POPC   C3A 2887   7.542   1.878   7.345
  585POPC   C4A 2888   7.435   1.617   6.941
  585POPC   C1B 2889   8.720   1.728   7.417
  585POPC   C2B 2890   8.976   1.535   7.096
  585POPC   C3B 2891   9.300   1.564   6.842
  585POPC   C4B 2892   9.295   1.832   6.432
  586POPC   NC3 2893   8.751   6.793   7.741
  586POPC   PO4 2894   8.826   7.115   8.010
  586POPC   GL1 2895   8.741   7.245   7.634
  586POPC   GL2 2896   8.866   7.537   7.630
  586POPC   C1A 2897   8.659   7.016   7.292
  586POPC   D2A 2898   8.617   6.898   6.879
  586POPC   C3A 2899   8.606   7.147   6.496
  586POPC   C4A 2900   8.606   7.216   6.038
  586POPC   C1B 2901   8.768   7.514   7.209
  586POPC   C2B 2902   8.910   7.630   6.784
  586POPC   C3B 2903   8.698   7.619   6.351
  586POPC   C4B 2904   9.031   7.891   6.058
  587POPC   NC3 2905   0.921   4.412   7.604
  587POPC   PO4 2906   0.886   4.030   7.666
  587POPC   GL1 2907   1.060   3.795   7.351
  587POPC   GL2 2908   0.874   3.571   7.403
  587POPC   C1A 2909   1.331   3.793   6.962
  587POPC   D2A 2910   1.292   3.932   6.504
  587POPC   C3A 2911   1.408   3.995   6.067
  587POPC   C4A 2912   1.654   4.141   5.745
  587POPC   C1B 2913   0.914   3.438   6.981
  587POPC   C2B 2914   1.147   3.461   6.586
  587POPC   C3B 2915   1.327   3.494   6.175
  587POPC   C4B 2916   1.689   3.443   5.883
  588POPC   NC3 2917  11.256   2.555   8.074
  588POPC   PO4 2918  11.574   2.815   8.032
  588POPC   GL1 2919  11.597   2.505   7.740
  588POPC   GL2 2920  11.465   2.608   7.505
  588POPC   C1A 2921  11.789   2.139   7.618
  588POPC   D2A 2922  11.900   2.185   7.168
  588POPC   C3A 2923  12.083   1.922   6.848
  588POPC   C4A 2924  12.110   1.945   6.417
  588POPC   C1B 2925  11.672   2.985   7.458
  588POPC   C2B 2926  11.370   3.362   7.478
  588POPC   C3B 2927  11.001   3.634   7.330
  588POPC   C4B 2928  10.684   3.915   7.060
  589POPC   NC3 2929   2.598   5.660   7.891
  589POPC   PO4 2930   2.446   5.295   7.837
  589POPC   GL1 2931   2.557   5.142   7.523
  589POPC   GL2 2932   2.444   4.929   7.546
  589POPC   C1A 2933   2.613   5.057   7.066
  589POPC   D2A 2934   2.904   4.963   6.727
  589POPC   C3A 2935   3.348   4.846   6.488
  589POPC   C4A 2936   3.553   4.902   6.046
  589POPC   C1B 2937   2.072   4.953   7.176
  589POPC   C2B 2938   2.014   5.164   6.794
  589POPC   C3B 2939   1.813   5.325   6.389
  589POPC   C4B 2940   1.639   5.383   5.966
  590POPC   NC3 2941   8.812   6.054   8.519
  590POPC   PO4 2942   9.164   6.239   8.492
  590POPC   GL1 2943   9.363   6.432   8.057
  590POPC   GL2 2944   9.228   6.609   7.903
  590POPC   C1A 2945   9.455   6.331   7.582
  590POPC   D2A 2946   9.400   6.153   7.174
  590POPC   C3A 2947   9.342   6.357   6.810
  590POPC   C4A 2948   9.595   6.606   6.537
  590POPC   C1B 2949   9.235   6.866   7.555
  590POPC   C2B 2950   9.543   6.800   7.185
  590POPC   C3B 2951   9.882   7.003   6.879
  590POPC   C4B 2952  10.066   7.378   6.573
  591POPC   NC3 2953   6.392  11.083   7.906
  591POPC   PO4 2954   6.005  10.982   7.817
  591POPC   GL1 2955   6.032  11.113   7.458
  591POPC   GL2 2956   5.738  11.209   7.385
  591POPC   C1A 2957   6.366  11.032   7.130
  591POPC   D2A 2958   6.771  11.137   6.949
  591POPC   C3A 2959   7.024  11.428   6.710
  591POPC   C4A 2960   7.122  11.850   6.495
  591POPC   C1B 2961   5.873  11.056   7.011
  591POPC   C2B 2962   6.087  11.189   6.686
  591POPC   C3B 2963   6.527  11.279   6.591
  591POPC   C4B 2964   6.791  11.445   6.232
  592POPC   NC3 2965   9.825   7.972   8.473
  592POPC   PO4 2966  10.173   8.170   8.529
  592POPC   GL1 2967  10.076   8.183   8.130
  592POPC   GL2 2968  10.301   8.292   7.883
  592POPC   C1A 2969  10.026   7.940   7.693
  592POPC   D2A 2970   9.867   7.474   7.636
  592POPC   C3A 2971   9.726   7.338   7.179
  592POPC   C4A 2972   9.435   7.323   6.762
  592POPC   C1B 2973  10.247   8.366   7.430
  592POPC   C2B 2974  10.166   8.261   6.985
  592POPC   C3B 2975  10.242   8.337   6.503
  592POPC   C4B 2976  10.322   8.542   6.039
  593POPC   NC3 2977   4.610  12.602   7.758
  593POPC   PO4 2978   4.664  12.884   8.026
  593POPC   GL1 2979   4.696  13.152   7.709
  593POPC   GL2 2980   4.351  13.121   7.675
  593POPC   C1A 2981   4.937  13.162   7.313
  593POPC   D2A 2982   5.025  13.509   7.212
  593POPC   C3A 2983   4.945  13.549   6.700
  593POPC   C4A 2984   4.858  13.687   6.290
  593POPC   C1B 2985   4.444  13.388   7.312
  593POPC   C2B 2986   4.438  13.627   6.900
  593POPC   C3B 2987   4.476  13.886   6.540
  593POPC   C4B 2988   4.680  14.113   6.199
  594POPC   NC3 2989  13.158   0.529   7.756
  594POPC   PO4 2990  13.109   0.141   7.856
  594POPC   GL1 2991  13.027   0.150   7.425
  594POPC   GL2 2992  12.908   0.414   7.327
  594POPC   C1A 2993  13.121   0.178   6.989
  594POPC   D2A 2994  13.366   0.499   6.726
  594POPC   C3A 2995  13.658   0.360   6.478
  594POPC   C4A 2996  13.714  -0.049   6.392
  594POPC   C1B 2997  13.353   0.520   7.223
  594POPC   C2B 2998  13.731   0.388   7.003
  594POPC   C3B 2999  14.070   0.167   6.768
  594POPC   C4B 3000  14.253  -0.224   6.657
  595POPC   NC3 3001   7.099  10.904   8.343
  595POPC   PO4 3002   6.732  10.946   8.254
  595POPC   GL1 3003   6.894  11.021   7.936
  595POPC   GL2 3004   6.885  11.231   7.832
  595POPC   C1A 3005   6.730  10.905   7.539
  595POPC   D2A 3006   6.678  10.663   7.158
  595POPC   C3A 3007   6.533  10.757   6.705
  595POPC   C4A 3008   6.339  10.855   6.319
  595POPC   C1B 3009   6.862  11.455   7.452
  595POPC   C2B 3010   6.922  11.785   7.053
  595POPC   C3B 3011   6.677  11.736   6.650
  595POPC   C4B 3012   6.382  11.749   6.304
  596POPC   NC3 3013  10.610  12.664   8.481
  596POPC   PO4 3014  10.713  12.370   8.260
  596POPC   GL1 3015  10.849  12.608   8.008
  596POPC   GL2 3016  11.142  12.564   7.909
  596POPC   C1A 3017  10.817  12.674   7.557
  596POPC   D2A 3018  10.502  12.813   7.255
  596POPC   C3A 3019  10.485  12.684   6.797
  596POPC   C4A 3020  10.291  12.895   6.397
  596POPC   C1B 3021  11.247  12.550   7.448
  596POPC   C2B 3022  11.013  12.626   7.019
  596POPC   C3B 3023  10.944  12.873   6.683
  596POPC   C4B 3024  11.047  13.319   6.729
  597POPC   NC3 3025   2.640  12.832   8.245
  597POPC   PO4 3026   2.539  13.078   7.915
  597POPC   GL1 3027   2.792  13.116   7.629
  597POPC   GL2 3028   2.878  13.399   7.644
  597POPC   C1A 3029   2.892  13.233   7.177
  597POPC   D2A 3030   2.983  13.192   6.723
  597POPC   C3A 3031   3.198  13.023   6.362
  597POPC   C4A 3032   3.533  12.871   6.058
  597POPC   C1B 3033   3.078  13.686   7.231
  597POPC   C2B 3034   3.119  13.661   6.821
  597POPC   C3B 3035   3.231  13.679   6.354
  597POPC   C4B 3036   3.568  13.675   6.050
  598POPC   NC3 3037   7.008   0.950   8.674
  598POPC   PO4 3038   7.297   0.831   8.483
  598POPC   GL1 3039   7.352   0.883   8.054
  598POPC   GL2 3040   7.524   1.114   7.940
  598POPC   C1A 3041   7.536   0.696   7.679
  598POPC   D2A 3042   7.629   0.722   7.212
  598POPC   C3A 3043   8.015   0.515   6.951
  598POPC   C4A 3044   7.917   0.344   6.528
  598POPC   C1B 3045   7.171   1.069   7.624
  598POPC   C2B 3046   7.038   0.836   7.226
  598POPC   C3B 3047   7.246   0.750   6.801
  598POPC   C4B 3048   7.293   1.176   6.540
  599POPC   NC3 3049   3.952   3.322   7.906
  599POPC   PO4 3050   3.605   3.530   7.902
  599POPC   GL1 3051   3.279   3.580   7.778
  599POPC   GL2 3052   3.070   3.400   7.644
  599POPC   C1A 3053   3.305   3.810   7.324
  599POPC   D2A 3054   3.478   3.663   6.894
  599POPC   C3A 3055   3.196   3.511   6.630
  599POPC   C4A 3056   3.086   3.161   6.339
  599POPC   C1B 3057   3.025   3.160   7.256
  599POPC   C2B 3058   2.981   3.036   6.862
  599POPC   C3B 3059   2.769   2.777   6.556
  599POPC   C4B 3060   2.627   2.455   6.278
  685POPC   NC3 3061   7.067   3.502   4.339
  685POPC   PO4 3062   7.284   3.249   4.117
  685POPC   GL1 3063   7.441   3.200   4.466
  685POPC   GL2 3064   7.489   3.456   4.664
  685POPC   C1A 3065   7.143   3.153   4.823
  685POPC   D2A 3066   6.793   2.917   5.031
  685POPC   C3A 3067   6.867   2.800   5.527
  685POPC   C4A 3068   7.092   2.641   5.932
  685POPC   C1B 3069   7.121   3.637   4.823
  685POPC   C2B 3070   6.914   3.455   5.187
  685POPC   C3B 3071   6.636   3.228   5.541
  685POPC   C4B 3072   6.767   3.068   5.950
  686POPC   NC3 3073   6.842   9.798   4.223
  686POPC   PO4 3074   6.558   9.999   4.420
  686POPC   GL1 3075   6.616  10.238   4.740
  686POPC   GL2 3076   6.344  10.302   4.800
  686POPC   C1A 3077   6.950  10.492   4.887
  686POPC   D2A 3078   7.345  10.669   5.098
  686POPC   C3A 3079   7.516  10.538   5.474
  686POPC   C4A 3080   7.804  10.342   5.757
  686POPC   C1B 3081   6.540  10.440   5.235
  686POPC   C2B 3082   6.915  10.550   5.464
  686POPC   C3B 3083   7.199  10.774   5.758
  686POPC   C4B 3084   7.589  10.795   6.028
  687POPC   NC3 3085   8.550  10.781   3.782
  687POPC   PO4 3086   8.688  11.094   3.949
  687POPC   GL1 3087   8.711  11.243   4.326
  687POPC   GL2 3088   8.435  11.413   4.313
  687POPC   C1A 3089   8.992  11.206   4.701
  687POPC   D2A 3090   9.212  11.504   5.066
  687POPC   C3A 3091   9.148  11.388   5.483
  687POPC   C4A 3092   9.035  11.006   5.740
  687POPC   C1B 3093   8.223  11.372   4.745
  687POPC   C2B 3094   8.342  11.272   5.179
  687POPC   C3B 3095   8.456  11.323   5.627
  687POPC   C4B 3096   8.132  11.357   5.940
  688POPC   NC3 3097   5.483   9.684   3.920
  688POPC   PO4 3098   5.796   9.732   4.169
  688POPC   GL1 3099   5.667   9.775   4.600
  688POPC   GL2 3100   5.859   9.938   4.773
  688POPC   C1A 3101   5.321   9.478   4.864
  688POPC   D2A 3102   5.007   9.326   5.209
  688POPC   C3A 3103   4.696   8.951   5.139
  688POPC   C4A 3104   4.365   8.601   5.018
  688POPC   C1B 3105   5.534   9.844   5.044
  688POPC   C2B 3106   5.283   9.744   5.379
  688POPC   C3B 3107   5.223   9.475   5.769
  688POPC   C4B 3108   4.932   9.185   5.991
  689POPC   NC3 3109   1.526  11.045   3.718
  689POPC   PO4 3110   1.634  10.713   3.901
  689POPC   GL1 3111   1.829  10.854   4.258
  689POPC   GL2 3112   1.986  10.712   4.475
  689POPC   C1A 3113   1.810  11.255   4.421
  689POPC   D2A 3114   1.741  11.314   4.865
  689POPC   C3A 3115   1.948  11.292   5.306
  689POPC   C4A 3116   2.153  11.150   5.693
  689POPC   C1B 3117   1.831  10.862   4.875
  689POPC   C2B 3118   1.826  10.774   5.329
  689POPC   C3B 3119   1.829  10.768   5.741
  689POPC   C4B 3120   1.885  10.491   6.069
  690POPC   NC3 3121   2.558   3.231   3.507
  690POPC   PO4 3122   2.677   2.903   3.693
  690POPC   GL1 3123   2.619   3.161   4.015
  690POPC   GL2 3124   2.898   3.227   4.187
  690POPC   C1A 3125   2.466   2.986   4.410
  690POPC   D2A 3126   2.371   2.799   4.790
  690POPC   C3A 3127   2.453   3.010   5.187
  690POPC   C4A 3128   2.370   3.118   5.650
  690POPC   C1B 3129   2.999   3.233   4.660
  690POPC   C2B 3130   2.961   3.205   5.112
  690POPC   C3B 3131   2.861   3.046   5.512
  690POPC   C4B 3132   2.700   2.774   5.855
  691POPC   NC3 3133  10.887   3.164   4.390
  691POPC   PO4 3134  10.976   3.534   4.313
  691POPC   GL1 3135  11.225   3.520   4.601
  691POPC   GL2 3136  11.351   3.275   4.561
  691POPC   C1A 3137  11.649   3.714   4.733
  691POPC   D2A 3138  11.947   3.807   5.097
  691POPC   C3A 3139  11.973   3.835   5.550
  691POPC   C4A 3140  11.941   3.829   6.058
  691POPC   C1B 3141  11.476   3.357   4.971
  691POPC   C2B 3142  11.639   3.498   5.417
  691POPC   C3B 3143  11.526   3.627   5.865
  691POPC   C4B 3144  11.483   3.662   6.322
  692POPC   NC3 3145  12.308  10.837   3.875
  692POPC   PO4 3146  12.024  10.868   4.113
  692POPC   GL1 3147  12.090  10.970   4.560
  692POPC   GL2 3148  12.197  10.769   4.690
  692POPC   C1A 3149  12.175  11.298   4.875
  692POPC   D2A 3150  12.165  11.674   5.115
  692POPC   C3A 3151  11.908  11.849   5.471
  692POPC   C4A 3152  11.807  11.956   5.906
  692POPC   C1B 3153  11.965  10.632   5.076
  692POPC   C2B 3154  11.992  10.473   5.514
  692POPC   C3B 3155  11.817  10.471   5.973
  692POPC   C4B 3156  11.531  10.346   6.353
  693POPC   NC3 3157  10.568   2.471   4.655
  693POPC   PO4 3158  10.535   2.080   4.571
  693POPC   GL1 3159  10.689   1.993   4.875
  693POPC   GL2 3160  10.744   1.743   4.999
  693POPC   C1A 3161  10.552   2.001   5.326
  693POPC   D2A 3162  10.695   1.992   5.798
  693POPC   C3A 3163  10.439   1.851   6.169
  693POPC   C4A 3164  10.174   1.744   6.560
  693POPC   C1B 3165  10.673   1.465   5.379
  693POPC   C2B 3166  10.462   1.436   5.788
  693POPC   C3B 3167  10.187   1.436   6.168
  693POPC   C4B 3168  10.138   1.061   6.513
  694POPC   NC3 3169   1.381  12.618   3.850
  694POPC   PO4 3170   1.382  12.849   4.200
  694POPC   GL1 3171   1.402  13.223   4.430
  694POPC   GL2 3172   1.338  13.139   4.689
  694POPC   C1A 3173   1.222  13.633   4.551
  694POPC   D2A 3174   1.043  13.709   4.953
  694POPC   C3A 3175   1.314  13.817   5.348
  694POPC   C4A 3176   1.448  14.207   5.526
  694POPC   C1B 3177   1.439  13.426   5.017
  694POPC   C2B 3178   1.609  13.324   5.485
  694POPC   C3B 3179   1.652  13.265   5.958
  694POPC   C4B 3180   1.395  13.456   6.288
  695POPC   NC3 3181   1.276   3.036   3.467
  695POPC   PO4 3182   1.127   2.770   3.702
  695POPC   GL1 3183   1.032   2.595   4.081
  695POPC   GL2 3184   1.214   2.738   4.247
  695POPC   C1A 3185   1.055   2.234   4.381
  695POPC   D2A 3186   1.175   2.160   4.864
  695POPC   C3A 3187   0.982   2.010   5.260
  695POPC   C4A 3188   1.002   1.689   5.657
  695POPC   C1B 3189   1.358   2.685   4.697
  695POPC   C2B 3190   1.454   2.540   5.105
  695POPC   C3B 3191   1.793   2.460   5.430
  695POPC   C4B 3192   2.131   2.678   5.271
  696POPC   NC3 3193   2.232   9.847   3.909
  696POPC   PO4 3194   2.466   9.594   3.708
  696POPC   GL1 3195   2.631   9.585   4.094
  696POPC   GL2 3196   2.985   9.646   4.051
  696POPC   C1A 3197   2.548   9.861   4.454
  696POPC   D2A 3198   2.512   9.813   4.922
  696POPC   C3A 3199   2.622   9.911   5.311
  696POPC   C4A 3200   2.757   9.935   5.719
  696POPC   C1B 3201   3.036   9.939   4.431
  696POPC   C2B 3202   3.061  10.039   4.888
  696POPC   C3B 3203   3.133  10.018   5.349
  696POPC   C4B 3204   3.233   9.944   5.828
  697POPC   NC3 3205   0.668   3.509   4.019
  697POPC   PO4 3206   0.675   3.834   3.827
  697POPC   GL1 3207   1.066   3.905   4.029
  697POPC   GL2 3208   0.892   3.893   4.272
  697POPC   C1A 3209   1.392   3.663   4.330
  697POPC   D2A 3210   1.794   3.557   4.569
  697POPC   C3A 3211   1.807   3.511   5.030
  697POPC   C4A 3212   2.006   3.301   5.371
  697POPC   C1B 3213   0.455   3.709   4.447
  697POPC   C2B 3214   0.210   3.688   4.873
  697POPC   C3B 3215   0.151   3.669   5.325
  697POPC   C4B 3216  -0.162   3.901   5.583
  698POPC   NC3 3217  12.771   3.850   3.699
  698POPC   PO4 3218  12.643   3.723   4.044
  698POPC   GL1 3219  12.340   3.539   4.356
  698POPC   GL2 3220  12.109   3.483   4.233
  698POPC   C1A 3221  12.382   3.314   4.742
  698POPC   D2A 3222  12.590   3.223   5.160
  698POPC   C3A 3223  12.590   2.954   5.485
  698POPC   C4A 3224  12.852   2.759   5.866
  698POPC   C1B 3225  11.928   3.380   4.644
  698POPC   C2B 3226  12.010   3.333   5.123
  698POPC   C3B 3227  12.110   3.042   5.455
  698POPC   C4B 3228  11.924   2.899   5.848
  699POPC   NC3 3229   0.341  11.732   3.580
  699POPC   PO4 3230   0.096  12.000   3.611
  699POPC   GL1 3231  -0.166  12.018   3.916
  699POPC   GL2 3232  -0.312  11.884   4.174
  699POPC   C1A 3233  -0.093  12.311   4.274
  699POPC   D2A 3234   0.190  12.194   4.581
  699POPC   C3A 3235   0.032  12.153   5.006
  699POPC   C4A 3236   0.120  12.186   5.445
  699POPC   C1B 3237  -0.110  11.782   4.614
  699POPC   C2B 3238  -0.170  11.640   5.084
  699POPC   C3B 3239  -0.230  11.746   5.534
  699POPC   C4B 3240  -0.050  11.530   5.960
  700POPC   NC3 3241   7.512   9.624   4.612
  700POPC   PO4 3242   7.245   9.534   4.310
  700POPC   GL1 3243   7.092   9.595   4.758
  700POPC   GL2 3244   7.066   9.872   4.713
  700POPC   C1A 3245   6.951   9.498   5.212
  700POPC   D2A 3246   6.803   9.391   5.640
  700POPC   C3A 3247   6.358   9.213   5.639
  700POPC   C4A 3248   5.954   9.120   5.512
  700POPC   C1B 3249   7.371   9.765   5.072
  700POPC   C2B 3250   7.488   9.407   5.381
  700POPC   C3B 3251   7.325   9.157   5.710
  700POPC   C4B 3252   7.267   8.791   6.025
  701POPC   NC3 3253   6.179  11.422   3.899
  701POPC   PO4 3254   6.203  11.581   4.254
  701POPC   GL1 3255   6.167  11.695   4.596
  701POPC   GL2 3256   5.893  11.568   4.606
  701POPC   C1A 3257   6.397  12.000   4.879
  701POPC   D2A 3258   6.766  11.949   5.170
  701POPC   C3A 3259   6.811  11.915   5.636
  701POPC   C4A 3260   6.808  11.928   6.132
  701POPC   C1B 3261   5.741  11.528   5.060
  701POPC   C2B 3262   5.894  11.572   5.520
  701POPC   C3B 3263   6.307  11.415   5.702
  701POPC   C4B 3264   6.270  11.308   6.142
  702POPC   NC3 3265   1.037   6.850   3.977
  702POPC   PO4 3266   1.090   6.506   3.792
  702POPC   GL1 3267   1.065   6.233   4.186
  702POPC   GL2 3268   0.780   6.135   4.155
  702POPC   C1A 3269   1.071   5.855   4.484
  702POPC   D2A 3270   1.156   5.664   4.907
  702POPC   C3A 3271   0.837   5.447   5.214
  702POPC   C4A 3272   0.405   5.449   5.370
  702POPC   C1B 3273   0.557   5.977   4.494
  702POPC   C2B 3274   0.302   6.087   4.862
  702POPC   C3B 3275   0.414   6.440   5.197
  702POPC   C4B 3276   0.399   6.512   5.664
  703POPC   NC3 3277   9.915   3.182   4.528
  703POPC   PO4 3278   9.615   3.421   4.439
  703POPC   GL1 3279   9.573   3.340   4.859
  703POPC   GL2 3280   9.794   3.375   4.983
  703POPC   C1A 3281   9.312   3.246   5.224
  703POPC   D2A 3282   9.260   3.273   5.676
  703POPC   C3A 3283   9.482   3.578   5.887
  703POPC   C4A 3284   9.883   3.662   6.015
  703POPC   C1B 3285   9.822   3.497   5.415
  703POPC   C2B 3286  10.105   3.334   5.730
  703POPC   C3B 3287  10.454   3.398   6.028
  703POPC   C4B 3288  10.743   3.646   6.303
  704POPC   NC3 3289   2.489   1.572   3.978
  704POPC   PO4 3290   2.815   1.429   3.835
  704POPC   GL1 3291   2.886   1.297   4.244
  704POPC   GL2 3292   3.139   1.443   4.289
  704POPC   C1A 3293   2.693   1.666   4.476
  704POPC   D2A 3294   2.480   2.142   4.446
  704POPC   C3A 3295   2.149   2.472   4.501
  704POPC   C4A 3296   1.788   2.758   4.432
  704POPC   C1B 3297   3.546   1.395   4.543
  704POPC   C2B 3298   3.781   1.428   4.965
  704POPC   C3B 3299   3.925   1.618   5.329
  704POPC   C4B 3300   3.992   1.735   5.786
  705POPC   NC3 3301   3.938  10.798   3.920
  705POPC   PO4 3302   3.677  10.683   3.661
  705POPC   GL1 3303   3.496  10.599   4.058
  705POPC   GL2 3304   3.327  10.803   4.075
  705POPC   C1A 3305   3.653  10.520   4.453
  705POPC   D2A 3306   3.443  10.467   4.838
  705POPC   C3A 3307   3.464  10.330   5.261
  705POPC   C4A 3308   3.622  10.163   5.697
  705POPC   C1B 3309   3.151  11.016   4.455
  705POPC   C2B 3310   3.193  10.878   4.896
  705POPC   C3B 3311   3.088  10.798   5.347
  705POPC   C4B 3312   3.319  10.966   5.693
  706POPC   NC3 3313   7.037   7.639   4.294
  706POPC   PO4 3314   7.010   8.001   4.460
  706POPC   GL1 3315   7.003   8.352   4.735
  706POPC   GL2 3316   7.092   8.568   4.669
  706POPC   C1A 3317   7.174   8.332   5.143
  706POPC   D2A 3318   7.193   8.436   5.581
  706POPC   C3A 3319   7.125   8.295   5.980
  706POPC   C4A 3320   6.788   8.442   6.304
  706POPC   C1B 3321   6.814   8.628   5.031
  706POPC   C2B 3322   6.450   8.801   5.326
  706POPC   C3B 3323   6.095   8.697   5.654
  706POPC   C4B 3324   6.110   8.848   6.088
  707POPC   NC3 3325   9.396   9.780   4.262
  707POPC   PO4 3326   9.045   9.917   4.456
  707POPC   GL1 3327   9.249   9.760   4.716
  707POPC   GL2 3328   9.156   9.480   4.780
  707POPC   C1A 3329   9.300  10.066   5.090
  707POPC   D2A 3330   9.448  10.422   5.253
  707POPC   C3A 3331   9.212  10.814   5.280
  707POPC   C4A 3332   8.801  11.128   5.203
  707POPC   C1B 3333   9.222   9.305   5.246
  707POPC   C2B 3334   9.245   9.118   5.707
  707POPC   C3B 3335   9.304   8.719   5.901
  707POPC   C4B 3336   9.269   8.294   5.927
  708POPC   NC3 3337   3.630   2.487   3.729
  708POPC   PO4 3338   4.020   2.502   3.871
  708POPC   GL1 3339   4.089   2.191   4.210
  708POPC   GL2 3340   4.265   2.379   4.283
  708POPC   C1A 3341   3.839   2.314   4.583
  708POPC   D2A 3342   3.638   2.561   4.938
  708POPC   C3A 3343   3.665   3.050   4.892
  708POPC   C4A 3344   3.904   3.405   5.019
  708POPC   C1B 3345   4.109   2.691   4.576
  708POPC   C2B 3346   4.210   2.904   4.953
  708POPC   C3B 3347   4.181   3.162   5.387
  708POPC   C4B 3348   4.091   3.327   5.795
  709POPC   NC3 3349   0.503   9.069   3.885
  709POPC   PO4 3350   0.211   8.881   4.099
  709POPC   GL1 3351   0.280   9.137   4.420
  709POPC   GL2 3352   0.548   9.209   4.410
  709POPC   C1A 3353   0.172   9.332   4.859
  709POPC   D2A 3354   0.184   9.704   5.133
  709POPC   C3A 3355  -0.020   9.602   5.513
  709POPC   C4A 3356  -0.087   9.723   5.918
  709POPC   C1B 3357   0.404   8.818   4.707
  709POPC   C2B 3358   0.214   8.464   4.965
  709POPC   C3B 3359   0.258   8.058   5.210
  709POPC   C4B 3360   0.322   7.847   5.634
  710POPC   NC3 3361   8.181  13.196   3.878
  710POPC   PO4 3362   8.477  13.143   4.061
  710POPC   GL1 3363   8.548  13.103   4.404
  710POPC   GL2 3364   8.782  12.982   4.540
  710POPC   C1A 3365   8.332  12.887   4.739
  710POPC   D2A 3366   8.246  12.907   5.212
  710POPC   C3A 3367   8.441  13.169   5.587
  710POPC   C4A 3368   8.520  13.073   6.019
  710POPC   C1B 3369   8.740  12.908   5.009
  710POPC   C2B 3370   8.691  12.791   5.450
  710POPC   C3B 3371   8.352  12.749   5.720
  710POPC   C4B 3372   8.104  12.588   6.057
  711POPC   NC3 3373  11.012   6.678   4.179
  711POPC   PO4 3374  11.210   6.946   4.366
  711POPC   GL1 3375  11.243   7.074   4.745
  711POPC   GL2 3376  11.314   7.370   4.891
  711POPC   C1A 3377  11.339   6.986   5.191
  711POPC   D2A 3378  11.202   6.919   5.663
  711POPC   C3A 3379  11.427   6.894   6.015
  711POPC   C4A 3380  11.461   6.901   6.500
  711POPC   C1B 3381  11.116   7.554   5.346
  711POPC   C2B 3382  11.169   7.383   5.748
  711POPC   C3B 3383  11.255   7.340   6.203
  711POPC   C4B 3384  11.465   7.381   6.632
  712POPC   NC3 3385   9.565   1.870   4.294
  712POPC   PO4 3386   9.223   2.026   4.240
  712POPC   GL1 3387   9.327   2.272   4.511
  712POPC   GL2 3388   9.582   2.400   4.543
  712POPC   C1A 3389   9.165   2.347   4.894
  712POPC   D2A 3390   9.140   2.326   5.357
  712POPC   C3A 3391   9.072   2.446   5.850
  712POPC   C4A 3392   8.986   2.212   6.278
  712POPC   C1B 3393   9.612   2.427   4.959
  712POPC   C2B 3394   9.661   2.462   5.438
  712POPC   C3B 3395   9.956   2.477   5.774
  712POPC   C4B 3396  10.372   2.327   5.939
  713POPC   NC3 3397   1.933  13.912   4.050
  713POPC   PO4 3398   1.744  13.692   3.799
  713POPC   GL1 3399   1.637  13.598   4.221
  713POPC   GL2 3400   1.825  13.439   4.323
  713POPC   C1A 3401   1.695  13.988   4.521
  713POPC   D2A 3402   1.637  14.012   5.007
  713POPC   C3A 3403   1.835  13.879   5.426
  713POPC   C4A 3404   1.957  14.063   5.832
  713POPC   C1B 3405   1.853  13.201   4.686
  713POPC   C2B 3406   1.688  12.964   5.062
  713POPC   C3B 3407   1.723  12.735   5.452
  713POPC   C4B 3408   1.733  12.654   5.909
  714POPC   NC3 3409   5.798   3.156   4.089
  714POPC   PO4 3410   5.412   3.043   3.907
  714POPC   GL1 3411   5.179   3.100   4.297
  714POPC   GL2 3412   5.379   3.203   4.460
  714POPC   C1A 3413   5.029   2.754   4.574
  714POPC   D2A 3414   4.698   2.618   4.888
  714POPC   C3A 3415   4.578   2.698   5.328
  714POPC   C4A 3416   4.252   2.674   5.640
  714POPC   C1B 3417   5.318   3.082   4.904
  714POPC   C2B 3418   5.283   3.288   5.295
  714POPC   C3B 3419   5.399   3.733   5.422
  714POPC   C4B 3420   5.493   3.951   5.793
  715POPC   NC3 3421   4.299   1.262   4.101
  715POPC   PO4 3422   4.590   0.988   4.084
  715POPC   GL1 3423   4.703   1.287   4.333
  715POPC   GL2 3424   4.659   1.160   4.610
  715POPC   C1A 3425   4.484   1.650   4.539
  715POPC   D2A 3426   4.020   1.847   4.548
  715POPC   C3A 3427   3.866   1.965   4.969
  715POPC   C4A 3428   3.710   2.180   5.334
  715POPC   C1B 3429   4.733   1.402   4.976
  715POPC   C2B 3430   4.673   1.673   5.251
  715POPC   C3B 3431   5.034   1.817   5.513
  715POPC   C4B 3432   5.072   2.082   5.906
  716POPC   NC3 3433   9.152   3.328   4.707
  716POPC   PO4 3434   8.774   3.381   4.621
  716POPC   GL1 3435   8.809   3.666   4.922
  716POPC   GL2 3436   8.856   3.444   5.104
  716POPC   C1A 3437   8.836   4.091   5.102
  716POPC   D2A 3438   8.663   4.398   5.418
  716POPC   C3A 3439   8.820   4.476   5.818
  716POPC   C4A 3440   9.029   4.826   6.032
  716POPC   C1B 3441   8.775   3.216   5.506
  716POPC   C2B 3442   8.890   2.946   5.896
  716POPC   C3B 3443   9.069   2.764   6.244
  716POPC   C4B 3444   9.320   2.498   6.474
  717POPC   NC3 3445   4.181   8.374   4.055
  717POPC   PO4 3446   4.085   7.992   4.095
  717POPC   GL1 3447   4.006   8.079   4.443
  717POPC   GL2 3448   3.811   8.307   4.436
  717POPC   C1A 3449   4.215   7.936   4.830
  717POPC   D2A 3450   4.324   7.689   5.220
  717POPC   C3A 3451   4.282   7.827   5.671
  717POPC   C4A 3452   4.174   7.893   6.092
  717POPC   C1B 3453   3.911   8.429   4.828
  717POPC   C2B 3454   3.971   8.363   5.311
  717POPC   C3B 3455   3.934   8.194   5.710
  717POPC   C4B 3456   3.753   8.280   6.094
  718POPC   NC3 3457   9.760   6.556   4.685
  718POPC   PO4 3458   9.368   6.635   4.625
  718POPC   GL1 3459   9.346   6.479   4.974
  718POPC   GL2 3460   9.565   6.609   5.144
  718POPC   C1A 3461   9.105   6.685   5.317
  718POPC   D2A 3462   8.969   6.961   5.651
  718POPC   C3A 3463   8.664   7.287   5.445
  718POPC   C4A 3464   8.454   7.527   5.214
  718POPC   C1B 3465   9.460   6.752   5.637
  718POPC   C2B 3466   9.521   6.872   6.071
  718POPC   C3B 3467   9.605   7.129   6.391
  718POPC   C4B 3468   9.585   7.597   6.369
  719POPC   NC3 3469   9.152   3.708   4.387
  719POPC   PO4 3470   9.380   3.982   4.241
  719POPC   GL1 3471   9.510   3.918   4.586
  719POPC   GL2 3472   9.758   3.885   4.793
  719POPC   C1A 3473   9.264   3.777   4.944
  719POPC   D2A 3474   9.171   3.722   5.412
  719POPC   C3A 3475   8.802   3.913   5.624
  719POPC   C4A 3476   8.606   3.708   6.026
  719POPC   C1B 3477   9.662   3.959   5.251
  719POPC   C2B 3478   9.647   4.056   5.719
  719POPC   C3B 3479   9.589   4.066   6.174
  719POPC   C4B 3480   9.580   4.175   6.599
  720POPC   NC3 3481  13.413  11.689   3.636
  720POPC   PO4 3482  13.419  11.393   3.895
  720POPC   GL1 3483  13.371  11.420   4.293
  720POPC   GL2 3484  13.200  11.658   4.421
  720POPC   C1A 3485  13.663  11.345   4.619
  720POPC   D2A 3486  14.098  11.258   4.757
  720POPC   C3A 3487  14.156  11.346   5.236
  720POPC   C4A 3488  14.460  11.224   5.560
  720POPC   C1B 3489  13.192  11.735   4.838
  720POPC   C2B 3490  13.291  11.868   5.254
  720POPC   C3B 3491  13.176  11.793   5.696
  720POPC   C4B 3492  13.278  11.643   6.147
  721POPC   NC3 3493   5.269  12.062   4.362
  721POPC   PO4 3494   5.304  11.655   4.334
  721POPC   GL1 3495   5.431  11.619   4.641
  721POPC   GL2 3496   5.521  11.868   4.810
  721POPC   C1A 3497   5.300  11.289   4.908
  721POPC   D2A 3498   5.158  11.036   5.260
  721POPC   C3A 3499   4.791  11.231   5.505
  721POPC   C4A 3500   4.616  11.328   5.945
  721POPC   C1B 3501   5.269  11.782   5.183
  721POPC   C2B 3502   5.381  11.432   5.512
  721POPC   C3B 3503   5.397  11.034   5.726
  721POPC   C4B 3504   5.696  10.651   5.737
  722POPC   NC3 3505   7.341   0.681   4.355
  722POPC   PO4 3506   7.031   0.959   4.409
  722POPC   GL1 3507   6.742   0.947   4.670
  722POPC   GL2 3508   6.675   0.670   4.652
  722POPC   C1A 3509   6.675   1.077   5.107
  722POPC   D2A 3510   6.712   1.279   5.490
  722POPC   C3A 3511   6.474   1.119   5.823
  722POPC   C4A 3512   6.232   1.043   6.214
  722POPC   C1B 3513   6.474   0.648   5.028
  722POPC   C2B 3514   6.337   0.792   5.461
  722POPC   C3B 3515   6.145   0.726   5.838
  722POPC   C4B 3516   6.108   0.495   6.192
  723POPC   NC3 3517   1.640   0.858   3.169
  723POPC   PO4 3518   1.556   0.583   3.464
  723POPC   GL1 3519   1.528   0.630   3.946
  723POPC   GL2 3520   1.661   0.882   4.105
  723POPC   C1A 3521   1.749   0.473   4.345
  723POPC   D2A 3522   1.932   0.544   4.756
  723POPC   C3A 3523   2.166   0.166   4.835
  723POPC   C4A 3524   2.297  -0.082   5.244
  723POPC   C1B 3525   1.649   0.935   4.558
  723POPC   C2B 3526   1.674   0.834   5.077
  723POPC   C3B 3527   1.817   0.485   5.246
  723POPC   C4B 3528   2.225   0.381   5.526
  724POPC   NC3 3529   1.848   5.575   3.805
  724POPC   PO4 3530   2.169   5.747   3.699
  724POPC   GL1 3531   2.258   5.595   4.107
  724POPC   GL2 3532   2.313   5.271   4.078
  724POPC   C1A 3533   2.216   5.810   4.532
  724POPC   D2A 3534   2.196   5.875   5.021
  724POPC   C3A 3535   2.020   6.087   5.368
  724POPC   C4A 3536   1.837   6.119   5.783
  724POPC   C1B 3537   2.422   5.025   4.428
  724POPC   C2B 3538   2.320   4.961   4.859
  724POPC   C3B 3539   2.123   5.014   5.296
  724POPC   C4B 3540   1.769   5.126   5.565
  725POPC   NC3 3541   8.738   1.131   4.224
  725POPC   PO4 3542   8.769   0.796   4.407
  725POPC   GL1 3543   8.757   0.937   4.725
  725POPC   GL2 3544   9.019   0.929   4.825
  725POPC   C1A 3545   8.494   0.815   5.052
  725POPC   D2A 3546   8.386   0.567   5.425
  725POPC   C3A 3547   8.577   0.134   5.508
  725POPC   C4A 3548   8.673  -0.270   5.422
  725POPC   C1B 3549   8.956   0.551   5.074
  725POPC   C2B 3550   8.873   0.521   5.560
  725POPC   C3B 3551   8.572   0.541   5.868
  725POPC   C4B 3552   8.198   0.694   6.116
  726POPC   NC3 3553   7.359   1.703   4.296
  726POPC   PO4 3554   7.366   1.316   4.454
  726POPC   GL1 3555   7.373   1.562   4.789
  726POPC   GL2 3556   7.497   1.326   4.982
  726POPC   C1A 3557   7.177   1.702   5.235
  726POPC   D2A 3558   7.068   1.719   5.715
  726POPC   C3A 3559   7.074   1.398   6.008
  726POPC   C4A 3560   6.802   1.177   6.196
  726POPC   C1B 3561   7.556   1.123   5.447
  726POPC   C2B 3562   7.345   0.923   5.856
  726POPC   C3B 3563   7.186   0.750   6.239
  726POPC   C4B 3564   6.952   0.391   6.465
  727POPC   NC3 3565   0.673   2.539   3.779
  727POPC   PO4 3566   0.268   2.446   3.849
  727POPC   GL1 3567   0.154   2.377   4.215
  727POPC   GL2 3568   0.085   2.669   4.326
  727POPC   C1A 3569   0.290   2.370   4.686
  727POPC   D2A 3570   0.505   2.406   5.092
  727POPC   C3A 3571   0.462   2.676   5.478
  727POPC   C4A 3572   0.287   2.808   5.860
  727POPC   C1B 3573   0.400   2.826   4.615
  727POPC   C2B 3574   0.618   3.036   5.004
  727POPC   C3B 3575   0.825   3.144   5.397
  727POPC   C4B 3576   1.068   3.243   5.786
  728POPC   NC3 3577   0.278   0.033   4.107
  728POPC   PO4 3578   0.476  -0.089   3.784
  728POPC   GL1 3579   0.324  -0.446   4.097
  728POPC   GL2 3580   0.148  -0.508   4.298
  728POPC   C1A 3581   0.479  -0.877   4.226
  728POPC   D2A 3582   0.499  -1.255   4.480
  728POPC   C3A 3583   0.549  -1.074   4.921
  728POPC   C4A 3584   0.817  -1.144   5.347
  728POPC   C1B 3585   0.212  -0.723   4.694
  728POPC   C2B 3586  -0.012  -0.872   5.054
  728POPC   C3B 3587  -0.098  -0.948   5.468
  728POPC   C4B 3588  -0.076  -1.365   5.697
  729POPC   NC3 3589   2.925   0.939   3.895
  729POPC   PO4 3590   3.156   0.621   4.054
  729POPC   GL1 3591   3.304   0.639   4.396
  729POPC   GL2 3592   3.527   0.857   4.358
  729POPC   C1A 3593   3.569   0.407   4.735
  729POPC   D2A 3594   3.767   0.259   5.117
  729POPC   C3A 3595   3.656   0.496   5.440
  729POPC   C4A 3596   3.396   0.864   5.489
  729POPC   C1B 3597   3.531   0.913   4.804
  729POPC   C2B 3598   3.770   1.017   5.177
  729POPC   C3B 3599   3.913   1.161   5.606
  729POPC   C4B 3600   4.059   1.346   6.016
  730POPC   NC3 3601   0.157  13.384   3.662
  730POPC   PO4 3602  -0.072  13.115   3.812
  730POPC   GL1 3603  -0.230  12.871   4.172
  730POPC   GL2 3604   0.039  12.847   4.318
  730POPC   C1A 3605  -0.631  12.949   4.338
  730POPC   D2A 3606  -0.826  12.916   4.751
  730POPC   C3A 3607  -0.478  12.795   5.091
  730POPC   C4A 3608  -0.517  12.688   5.555
  730POPC   C1B 3609   0.094  12.650   4.739
  730POPC   C2B 3610   0.184  12.616   5.235
  730POPC   C3B 3611   0.414  12.639   5.603
  730POPC   C4B 3612   0.723  12.963   5.808
  731POPC   NC3 3613  10.068   4.444   4.148
  731POPC   PO4 3614   9.793   4.246   4.330
  731POPC   GL1 3615   9.635   4.292   4.681
  731POPC   GL2 3616   9.560   4.601   4.767
  731POPC   C1A 3617   9.365   4.265   5.068
  731POPC   D2A 3618   9.206   4.351   5.518
  731POPC   C3A 3619   9.169   4.057   5.892
  731POPC   C4A 3620   9.157   3.859   6.275
  731POPC   C1B 3621   9.434   4.790   5.162
  731POPC   C2B 3622   9.362   4.904   5.605
  731POPC   C3B 3623   9.103   5.253   5.822
  731POPC   C4B 3624   8.687   5.198   5.984
  732POPC   NC3 3625   4.459   6.403   4.350
  732POPC   PO4 3626   4.712   6.581   4.065
  732POPC   GL1 3627   4.833   6.773   4.497
  732POPC   GL2 3628   4.653   6.994   4.364
  732POPC   C1A 3629   5.030   6.505   4.864
  732POPC   D2A 3630   5.153   6.147   5.044
  732POPC   C3A 3631   5.274   6.128   5.468
  732POPC   C4A 3632   5.543   6.321   5.807
  732POPC   C1B 3633   4.835   7.052   4.845
  732POPC   C2B 3634   4.995   7.109   5.259
  732POPC   C3B 3635   5.192   7.314   5.624
  732POPC   C4B 3636   5.425   7.428   5.989
  733POPC   NC3 3637   1.359  10.243   3.837
  733POPC   PO4 3638   1.612   9.909   3.811
  733POPC   GL1 3639   1.676   9.812   4.133
  733POPC   GL2 3640   1.586   9.989   4.286
  733POPC   C1A 3641   2.029   9.864   4.417
  733POPC   D2A 3642   1.884   9.983   4.855
  733POPC   C3A 3643   2.079   9.954   5.247
  733POPC   C4A 3644   2.237   9.800   5.655
  733POPC   C1B 3645   1.447   9.810   4.738
  733POPC   C2B 3646   1.500   9.654   5.201
  733POPC   C3B 3647   1.454   9.475   5.635
  733POPC   C4B 3648   1.511   9.420   6.112
  734POPC   NC3 3649  10.109   4.929   4.018
  734POPC   PO4 3650  10.250   4.925   4.386
  734POPC   GL1 3651  10.190   4.957   4.815
  734POPC   GL2 3652   9.871   5.004   4.876
  734POPC   C1A 3653  10.282   5.131   5.246
  734POPC   D2A 3654  10.065   5.384   5.574
  734POPC   C3A 3655  10.045   5.390   6.023
  734POPC   C4A 3656   9.729   5.544   6.275
  734POPC   C1B 3657  10.013   4.738   5.210
  734POPC   C2B 3658   9.696   4.499   5.513
  734POPC   C3B 3659   9.470   4.490   5.917
  734POPC   C4B 3660   9.623   4.649   6.278
  735POPC   NC3 3661   4.601   7.852   3.747
  735POPC   PO4 3662   4.346   7.567   3.836
  735POPC   GL1 3663   4.395   7.539   4.219
  735POPC   GL2 3664   4.146   7.600   4.395
  735POPC   C1A 3665   4.550   7.579   4.690
  735POPC   D2A 3666   4.867   7.540   4.994
  735POPC   C3A 3667   4.842   7.673   5.465
  735POPC   C4A 3668   4.847   7.923   5.837
  735POPC   C1B 3669   3.986   7.504   4.867
  735POPC   C2B 3670   3.586   7.455   5.124
  735POPC   C3B 3671   3.371   7.588   5.471
  735POPC   C4B 3672   3.009   7.914   5.531
  736POPC   NC3 3673  10.340   5.432   4.359
  736POPC   PO4 3674  10.041   5.685   4.387
  736POPC   GL1 3675   9.943   5.538   4.664
  736POPC   GL2 3676  10.090   5.417   4.781
  736POPC   C1A 3677   9.511   5.603   4.841
  736POPC   D2A 3678   9.100   5.750   4.997
  736POPC   C3A 3679   8.869   5.764   5.394
  736POPC   C4A 3680   8.725   5.692   5.827
  736POPC   C1B 3681   9.952   5.737   5.092
  736POPC   C2B 3682   9.980   5.913   5.521
  736POPC   C3B 3683   9.947   5.883   6.001
  736POPC   C4B 3684  10.116   5.826   6.442
  737POPC   NC3 3685   6.677   4.713   3.537
  737POPC   PO4 3686   6.769   4.724   3.926
  737POPC   GL1 3687   6.904   4.764   4.298
  737POPC   GL2 3688   6.945   5.021   4.513
  737POPC   C1A 3689   6.961   4.486   4.691
  737POPC   D2A 3690   7.107   4.187   4.977
  737POPC   C3A 3691   6.908   4.127   5.386
  737POPC   C4A 3692   6.816   4.523   5.591
  737POPC   C1B 3693   6.799   4.933   4.931
  737POPC   C2B 3694   7.053   4.690   5.194
  737POPC   C3B 3695   7.300   4.763   5.607
  737POPC   C4B 3696   7.616   4.814   5.947
  738POPC   NC3 3697  10.422   1.616   4.611
  738POPC   PO4 3698  10.051   1.610   4.450
  738POPC   GL1 3699   9.998   1.436   4.771
  738POPC   GL2 3700   9.938   1.171   4.756
  738POPC   C1A 3701   9.689   1.538   5.171
  738POPC   D2A 3702   9.544   1.969   5.213
  738POPC   C3A 3703   9.441   2.092   5.670
  738POPC   C4A 3704   9.463   2.202   6.122
  738POPC   C1B 3705   9.953   1.121   5.220
  738POPC   C2B 3706  10.133   0.969   5.609
  738POPC   C3B 3707  10.337   0.934   6.047
  738POPC   C4B 3708  10.558   0.763   6.428
  739POPC   NC3 3709   8.941   4.223   4.109
  739POPC   PO4 3710   8.624   4.341   4.277
  739POPC   GL1 3711   8.481   4.279   4.629
  739POPC   GL2 3712   8.218   4.100   4.595
  739POPC   C1A 3713   8.398   4.366   5.047
  739POPC   D2A 3714   8.151   4.353   5.473
  739POPC   C3A 3715   8.329   4.167   5.919
  739POPC   C4A 3716   8.661   4.314   6.222
  739POPC   C1B 3717   8.064   4.017   5.022
  739POPC   C2B 3718   7.784   3.956   5.357
  739POPC   C3B 3719   7.738   4.211   5.721
  739POPC   C4B 3720   7.986   4.502   6.047
  740POPC   NC3 3721   7.960   5.989   4.460
  740POPC   PO4 3722   8.320   6.143   4.301
  740POPC   GL1 3723   8.442   5.860   4.649
  740POPC   GL2 3724   8.573   6.078   4.820
  740POPC   C1A 3725   8.623   5.597   4.953
  740POPC   D2A 3726   8.842   5.141   4.978
  740POPC   C3A 3727   9.207   5.309   5.206
  740POPC   C4A 3728   9.657   5.219   5.312
  740POPC   C1B 3729   8.466   6.006   5.266
  740POPC   C2B 3730   8.420   6.027   5.702
  740POPC   C3B 3731   8.390   6.035   6.191
  740POPC   C4B 3732   8.374   5.864   6.630
  741POPC   NC3 3733   1.278   4.321   3.478
  741POPC   PO4 3734   1.679   4.358   3.577
  741POPC   GL1 3735   1.488   4.482   3.853
  741POPC   GL2 3736   1.616   4.733   4.035
  741POPC   C1A 3737   1.279   4.309   4.240
  741POPC   D2A 3738   1.253   4.156   4.658
  741POPC   C3A 3739   1.403   3.744   4.828
  741POPC   C4A 3740   1.346   3.482   5.201
  741POPC   C1B 3741   1.581   4.625   4.502
  741POPC   C2B 3742   1.568   4.424   4.894
  741POPC   C3B 3743   1.585   4.060   5.240
  741POPC   C4B 3744   1.744   3.706   5.476
  742POPC   NC3 3745   3.943  12.546   4.445
  742POPC   PO4 3746   4.262  12.376   4.331
  742POPC   GL1 3747   4.172  12.009   4.439
  742POPC   GL2 3748   4.026  12.033   4.713
  742POPC   C1A 3749   4.398  11.702   4.656
  742POPC   D2A 3750   4.689  11.493   4.989
  742POPC   C3A 3751   4.848  11.687   5.386
  742POPC   C4A 3752   5.010  11.554   5.792
  742POPC   C1B 3753   3.886  11.951   5.141
  742POPC   C2B 3754   3.872  11.736   5.608
  742POPC   C3B 3755   4.040  11.513   5.987
  742POPC   C4B 3756   4.092  11.210   6.347
  743POPC   NC3 3757  10.093   6.685   3.863
  743POPC   PO4 3758  10.068   6.518   4.208
  743POPC   GL1 3759  10.136   6.346   4.653
  743POPC   GL2 3760   9.942   6.079   4.780
  743POPC   C1A 3761  10.328   6.624   4.944
  743POPC   D2A 3762  10.297   6.785   5.351
  743POPC   C3A 3763  10.272   6.446   5.625
  743POPC   C4A 3764  10.580   6.160   5.800
  743POPC   C1B 3765   9.939   6.375   5.148
  743POPC   C2B 3766   9.703   6.346   5.569
  743POPC   C3B 3767   9.517   6.261   5.965
  743POPC   C4B 3768   9.573   6.019   6.329
  744POPC   NC3 3769   3.326  13.309   3.915
  744POPC   PO4 3770   3.029  13.219   3.646
  744POPC   GL1 3771   2.833  13.079   4.021
  744POPC   GL2 3772   3.071  13.051   4.288
  744POPC   C1A 3773   2.513  13.179   4.378
  744POPC   D2A 3774   2.367  13.013   4.816
  744POPC   C3A 3775   2.614  12.903   5.178
  744POPC   C4A 3776   2.942  12.901   5.515
  744POPC   C1B 3777   2.913  12.803   4.603
  744POPC   C2B 3778   2.995  12.626   4.994
  744POPC   C3B 3779   2.874  12.386   5.287
  744POPC   C4B 3780   2.926  12.046   5.564
  745POPC   NC3 3781  11.642   6.732   4.295
  745POPC   PO4 3782  11.694   7.103   4.317
  745POPC   GL1 3783  11.646   7.037   4.685
  745POPC   GL2 3784  11.572   6.766   4.776
  745POPC   C1A 3785  11.805   7.202   5.048
  745POPC   D2A 3786  12.101   7.300   5.436
  745POPC   C3A 3787  12.174   7.153   5.865
  745POPC   C4A 3788  12.025   7.034   6.257
  745POPC   C1B 3789  11.549   6.438   5.129
  745POPC   C2B 3790  11.509   6.421   5.598
  745POPC   C3B 3791  11.237   6.372   5.937
  745POPC   C4B 3792  11.084   6.550   6.346
  746POPC   NC3 3793  12.517   3.248   4.037
  746POPC   PO4 3794  12.637   2.956   4.253
  746POPC   GL1 3795  12.750   2.946   4.531
  746POPC   GL2 3796  12.989   3.048   4.695
  746POPC   C1A 3797  12.945   2.568   4.790
  746POPC   D2A 3798  13.151   2.306   5.160
  746POPC   C3A 3799  13.546   2.419   5.313
  746POPC   C4A 3800  13.767   2.456   5.741
  746POPC   C1B 3801  12.972   2.952   5.120
  746POPC   C2B 3802  13.118   2.806   5.472
  746POPC   C3B 3803  13.222   2.450   5.718
  746POPC   C4B 3804  13.004   2.280   6.026
  747POPC   NC3 3805  12.196  13.926   4.367
  747POPC   PO4 3806  12.008  13.604   4.249
  747POPC   GL1 3807  12.118  13.493   4.582
  747POPC   GL2 3808  11.931  13.727   4.792
  747POPC   C1A 3809  12.401  13.556   4.947
  747POPC   D2A 3810  12.332  13.208   5.269
  747POPC   C3A 3811  12.479  13.206   5.741
  747POPC   C4A 3812  12.715  13.461   6.066
  747POPC   C1B 3813  11.943  13.576   5.231
  747POPC   C2B 3814  11.974  13.383   5.668
  747POPC   C3B 3815  11.710  13.362   6.068
  747POPC   C4B 3816  11.352  13.156   6.176
  748POPC   NC3 3817  10.945  10.019   4.632
  748POPC   PO4 3818  10.575  10.197   4.652
  748POPC   GL1 3819  10.583  10.308   5.042
  748POPC   GL2 3820  10.791  10.334   5.244
  748POPC   C1A 3821  10.361  10.580   5.386
  748POPC   D2A 3822  10.143  10.630   5.763
  748POPC   C3A 3823  10.204  10.899   6.128
  748POPC   C4A 3824  10.301  11.352   6.206
  748POPC   C1B 3825  10.768  10.312   5.665
  748POPC   C2B 3826  10.602  10.570   5.979
  748POPC   C3B 3827  10.776  10.983   6.135
  748POPC   C4B 3828  10.708  11.273   6.487
  749POPC   NC3 3829   3.322   0.157   3.798
  749POPC   PO4 3830   3.146  -0.096   4.058
  749POPC   GL1 3831   3.117   0.119   4.354
  749POPC   GL2 3832   3.366  -0.008   4.476
  749POPC   C1A 3833   3.026   0.432   4.697
  749POPC   D2A 3834   3.218   0.596   5.076
  749POPC   C3A 3835   3.145   0.380   5.448
  749POPC   C4A 3836   3.312   0.312   5.910
  749POPC   C1B 3837   3.293   0.048   4.923
  749POPC   C2B 3838   3.357  -0.084   5.356
  749POPC   C3B 3839   3.108  -0.110   5.762
  749POPC   C4B 3840   2.811  -0.044   6.102
  750POPC   NC3 3841   1.945   2.178   4.031
  750POPC   PO4 3842   1.786   1.847   3.975
  750POPC   GL1 3843   1.613   1.860   4.333
  750POPC   GL2 3844   1.661   1.560   4.384
  750POPC   C1A 3845   1.620   2.254   4.588
  750POPC   D2A 3846   1.905   2.507   4.907
  750POPC   C3A 3847   2.334   2.286   4.973
  750POPC   C4A 3848   2.457   2.071   5.401
  750POPC   C1B 3849   1.511   1.788   4.784
  750POPC   C2B 3850   1.495   1.834   5.211
  750POPC   C3B 3851   1.369   2.181   5.522
  750POPC   C4B 3852   1.350   2.622   5.673
  751POPC   NC3 3853   5.860   1.112   3.799
  751POPC   PO4 3854   6.071   1.348   4.012
  751POPC   GL1 3855   5.998   1.378   4.353
  751POPC   GL2 3856   5.757   1.119   4.429
  751POPC   C1A 3857   6.036   1.701   4.707
  751POPC   D2A 3858   5.889   1.951   5.031
  751POPC   C3A 3859   6.066   2.034   5.469
  751POPC   C4A 3860   6.048   2.012   5.901
  751POPC   C1B 3861   5.563   0.930   4.796
  751POPC   C2B 3862   5.473   0.989   5.235
  751POPC   C3B 3863   5.618   0.747   5.623
  751POPC   C4B 3864   5.730   0.896   6.061
  752POPC   NC3 3865  12.522   2.246   3.842
  752POPC   PO4 3866  12.621   1.872   3.826
  752POPC   GL1 3867  12.495   1.900   4.152
  752POPC   GL2 3868  12.553   1.706   4.368
  752POPC   C1A 3869  12.367   2.148   4.531
  752POPC   D2A 3870  12.338   2.593   4.665
  752POPC   C3A 3871  12.481   2.624   5.134
  752POPC   C4A 3872  12.788   2.379   5.442
  752POPC   C1B 3873  12.379   1.674   4.796
  752POPC   C2B 3874  12.279   1.439   5.113
  752POPC   C3B 3875  12.223   1.005   5.274
  752POPC   C4B 3876  11.959   0.701   5.084
  753POPC   NC3 3877   2.630   6.195   4.133
  753POPC   PO4 3878   2.405   6.555   4.101
  753POPC   GL1 3879   2.236   6.316   4.428
  753POPC   GL2 3880   2.108   6.382   4.583
  753POPC   C1A 3881   2.612   6.124   4.679
  753POPC   D2A 3882   2.845   6.132   5.085
  753POPC   C3A 3883   2.638   5.851   5.380
  753POPC   C4A 3884   2.365   5.935   5.744
  753POPC   C1B 3885   2.371   6.430   4.986
  753POPC   C2B 3886   2.380   6.384   5.407
  753POPC   C3B 3887   2.683   6.260   5.745
  753POPC   C4B 3888   2.906   5.913   5.964
  754POPC   NC3 3889   4.343   6.345   3.851
  754POPC   PO4 3890   4.223   6.714   3.974
  754POPC   GL1 3891   3.836   6.853   4.321
  754POPC   GL2 3892   4.003   7.114   4.241
  754POPC   C1A 3893   3.824   7.015   4.762
  754POPC   D2A 3894   3.946   7.136   5.186
  754POPC   C3A 3895   3.999   6.855   5.512
  754POPC   C4A 3896   4.142   6.885   5.941
  754POPC   C1B 3897   4.286   7.153   4.595
  754POPC   C2B 3898   4.411   7.241   5.033
  754POPC   C3B 3899   4.551   7.196   5.508
  754POPC   C4B 3900   4.804   6.930   5.752
  755POPC   NC3 3901  12.583   4.662   3.752
  755POPC   PO4 3902  12.934   4.718   3.915
  755POPC   GL1 3903  13.101   4.668   4.275
  755POPC   GL2 3904  13.322   4.775   4.441
  755POPC   C1A 3905  12.905   4.438   4.663
  755POPC   D2A 3906  12.878   4.046   4.944
  755POPC   C3A 3907  12.919   4.077   5.390
  755POPC   C4A 3908  13.058   4.225   5.828
  755POPC   C1B 3909  13.134   4.821   4.920
  755POPC   C2B 3910  13.021   4.915   5.307
  755POPC   C3B 3911  13.236   4.666   5.664
  755POPC   C4B 3912  13.502   4.547   5.916
  756POPC   NC3 3913   1.746   3.404   3.714
  756POPC   PO4 3914   1.782   3.087   3.532
  756POPC   GL1 3915   1.554   2.933   3.866
  756POPC   GL2 3916   1.782   2.921   3.990
  756POPC   C1A 3917   1.458   3.137   4.291
  756POPC   D2A 3918   1.373   3.267   4.720
  756POPC   C3A 3919   1.169   3.039   5.032
  756POPC   C4A 3920   0.986   2.673   5.291
  756POPC   C1B 3921   2.025   3.175   4.283
  756POPC   C2B 3922   1.920   3.132   4.760
  756POPC   C3B 3923   1.659   3.000   5.127
  756POPC   C4B 3924   1.404   3.114   5.502
  757POPC   NC3 3925   2.478  10.796   3.523
  757POPC   PO4 3926   2.484  11.099   3.733
  757POPC   GL1 3927   2.553  10.996   4.141
  757POPC   GL2 3928   2.304  11.040   4.276
  757POPC   C1A 3929   2.663  11.283   4.497
  757POPC   D2A 3930   2.979  11.515   4.791
  757POPC   C3A 3931   3.419  11.386   4.715
  757POPC   C4A 3932   3.631  11.151   4.425
  757POPC   C1B 3933   2.260  11.112   4.712
  757POPC   C2B 3934   2.312  10.930   5.167
  757POPC   C3B 3935   2.563  10.851   5.505
  757POPC   C4B 3936   2.799  10.765   5.897
  758POPC   NC3 3937   6.548  11.206   4.187
  758POPC   PO4 3938   6.922  11.256   4.089
  758POPC   GL1 3939   6.931  11.612   4.336
  758POPC   GL2 3940   6.680  11.684   4.382
  758POPC   C1A 3941   7.241  11.795   4.595
  758POPC   D2A 3942   7.301  11.930   5.017
  758POPC   C3A 3943   7.305  11.997   5.412
  758POPC   C4A 3944   7.188  12.212   5.793
  758POPC   C1B 3945   6.856  11.606   4.819
  758POPC   C2B 3946   7.054  11.555   5.244
  758POPC   C3B 3947   7.096  11.360   5.672
  758POPC   C4B 3948   7.116  11.173   6.013
  759POPC   NC3 3949   5.450  10.287   3.583
  759POPC   PO4 3950   5.286  10.612   3.656
  759POPC   GL1 3951   5.222  10.520   4.113
  759POPC   GL2 3952   4.967  10.427   4.204
  759POPC   C1A 3953   5.320  10.409   4.554
  759POPC   D2A 3954   5.470  10.361   4.986
  759POPC   C3A 3955   5.279  10.530   5.335
  759POPC   C4A 3956   5.159  10.507   5.782
  759POPC   C1B 3957   4.829  10.387   4.651
  759POPC   C2B 3958   4.916  10.276   5.064
  759POPC   C3B 3959   5.022  10.146   5.465
  759POPC   C4B 3960   5.158   9.960   5.877
  760POPC   NC3 3961   9.613  13.661   4.317
  760POPC   PO4 3962   9.432  14.010   4.233
  760POPC   GL1 3963   9.585  14.169   4.571
  760POPC   GL2 3964   9.682  13.967   4.727
  760POPC   C1A 3965   9.528  14.410   4.929
  760POPC   D2A 3966   9.500  14.432   5.374
  760POPC   C3A 3967   9.370  14.348   5.803
  760POPC   C4A 3968   9.410  14.555   6.157
  760POPC   C1B 3969   9.780  13.988   5.210
  760POPC   C2B 3970   9.653  13.905   5.622
  760POPC   C3B 3971   9.763  13.528   5.872
  760POPC   C4B 3972  10.080  13.182   5.860
  761POPC   NC3 3973  10.657   4.848   4.607
  761POPC   PO4 3974  11.034   4.902   4.549
  761POPC   GL1 3975  11.179   5.046   4.838
  761POPC   GL2 3976  11.029   4.820   5.046
  761POPC   C1A 3977  11.158   5.475   5.020
  761POPC   D2A 3978  10.916   5.867   4.991
  761POPC   C3A 3979  11.230   6.106   4.864
  761POPC   C4A 3980  11.613   5.955   4.752
  761POPC   C1B 3981  11.250   5.113   5.365
  761POPC   C2B 3982  11.314   5.363   5.745
  761POPC   C3B 3983  11.326   5.432   6.173
  761POPC   C4B 3984  10.979   5.341   6.380
  762POPC   NC3 3985   9.067   5.457   4.568
  762POPC   PO4 3986   9.009   5.862   4.518
  762POPC   GL1 3987   9.133   6.122   4.691
  762POPC   GL2 3988   9.438   6.163   4.722
  762POPC   C1A 3989   8.961   6.204   5.159
  762POPC   D2A 3990   8.755   6.398   5.543
  762POPC   C3A 3991   9.046   6.541   5.911
  762POPC   C4A 3992   9.167   6.401   6.360
  762POPC   C1B 3993   9.531   6.019   5.159
  762POPC   C2B 3994   9.429   5.671   5.425
  762POPC   C3B 3995   9.603   5.377   5.775
  762POPC   C4B 3996   9.466   5.073   6.091
  763POPC   NC3 3997  10.425   7.433   4.037
  763POPC   PO4 3998  10.354   7.374   4.435
  763POPC   GL1 3999  10.345   7.282   4.763
  763POPC   GL2 4000  10.208   7.362   4.999
  763POPC   C1A 4001  10.649   7.131   5.086
  763POPC   D2A 4002  10.754   7.104   5.539
  763POPC   C3A 4003  10.429   6.955   5.792
  763POPC   C4A 4004  10.324   6.984   6.205
  763POPC   C1B 4005   9.965   7.550   5.384
  763POPC   C2B 4006  10.093   7.809   5.720
  763POPC   C3B 4007  10.176   7.803   6.212
  763POPC   C4B 4008  10.001   7.900   6.673
  764POPC   NC3 4009   3.140   9.235   3.671
  764POPC   PO4 4010   2.816   9.227   3.824
  764POPC   GL1 4011   2.949   9.157   4.175
  764POPC   GL2 4012   3.004   8.858   4.143
  764POPC   C1A 4013   2.837   9.470   4.532
  764POPC   D2A 4014   2.908   9.548   4.985
  764POPC   C3A 4015   2.921   9.465   5.414
  764POPC   C4A 4016   2.998   9.502   5.836
  764POPC   C1B 4017   2.961   8.597   4.539
  764POPC   C2B 4018   3.108   8.680   4.957
  764POPC   C3B 4019   3.331   8.743   5.341
  764POPC   C4B 4020   3.659   8.626   5.647
  765POPC   NC3 4021  11.348   1.884   4.346
  765POPC   PO4 4022  11.532   1.844   3.996
  765POPC   GL1 4023  11.676   1.498   4.231
  765POPC   GL2 4024  11.464   1.294   4.281
  765POPC   C1A 4025  11.979   1.318   4.437
  765POPC   D2A 4026  12.185   0.967   4.601
  765POPC   C3A 4027  12.531   0.916   4.852
  765POPC   C4A 4028  12.746   0.917   5.259
  765POPC   C1B 4029  11.387   1.516   4.711
  765POPC   C2B 4030  11.404   1.641   5.157
  765POPC   C3B 4031  11.096   1.832   5.473
  765POPC   C4B 4032  11.183   2.054   5.895
  766POPC   NC3 4033   7.547  10.543   3.903
  766POPC   PO4 4034   7.689  10.226   3.960
  766POPC   GL1 4035   7.574  10.047   4.382
  766POPC   GL2 4036   7.339  10.280   4.302
  766POPC   C1A 4037   7.922   9.969   4.665
  766POPC   D2A 4038   8.311   9.708   4.680
  766POPC   C3A 4039   8.205   9.289   4.941
  766POPC   C4A 4040   8.015   9.212   5.336
  766POPC   C1B 4041   7.379  10.243   4.773
  766POPC   C2B 4042   7.173  10.190   5.157
  766POPC   C3B 4043   7.354  10.051   5.620
  766POPC   C4B 4044   7.643   9.884   5.936
  767POPC   NC3 4045   9.041   2.526   4.056
  767POPC   PO4 4046   9.257   2.691   4.299
  767POPC   GL1 4047   9.228   2.836   4.630
  767POPC   GL2 4048   9.512   2.906   4.719
  767POPC   C1A 4049   9.168   2.817   5.081
  767POPC   D2A 4050   9.292   2.816   5.523
  767POPC   C3A 4051   9.508   2.698   5.887
  767POPC   C4A 4052   9.774   2.681   6.280
  767POPC   C1B 4053   9.677   2.938   5.139
  767POPC   C2B 4054   9.830   2.965   5.555
  767POPC   C3B 4055   9.756   3.113   6.003
  767POPC   C4B 4056   9.953   3.289   6.413
  768POPC   NC3 4057  13.928   1.642   3.759
  768POPC   PO4 4058  14.264   1.644   3.526
  768POPC   GL1 4059  14.382   1.431   3.858
  768POPC   GL2 4060  14.656   1.572   3.810
  768POPC   C1A 4061  14.277   1.404   4.272
  768POPC   D2A 4062  14.105   1.504   4.696
  768POPC   C3A 4063  14.223   1.319   5.112
  768POPC   C4A 4064  14.369   1.431   5.578
  768POPC   C1B 4065  14.810   1.677   4.229
  768POPC   C2B 4066  14.996   1.725   4.667
  768POPC   C3B 4067  14.991   1.478   5.061
  768POPC   C4B 4068  14.846   1.196   5.388
  769POPC   NC3 4069  10.446   9.686   4.482
  769POPC   PO4 4070  10.332   9.277   4.431
  769POPC   GL1 4071  10.482   9.281   4.756
  769POPC   GL2 4072  10.423   9.419   4.997
  769POPC   C1A 4073  10.710   8.975   4.992
  769POPC   D2A 4074  10.785   8.507   5.123
  769POPC   C3A 4075  10.793   8.450   5.573
  769POPC   C4A 4076  10.887   8.440   6.023
  769POPC   C1B 4077  10.294   9.279   5.461
  769POPC   C2B 4078  10.081   9.014   5.730
  769POPC   C3B 4079   9.844   8.658   5.947
  769POPC   C4B 4080   9.750   8.259   5.679
  770POPC   NC3 4081   6.926   4.305   4.192
  770POPC   PO4 4082   6.848   3.909   4.172
  770POPC   GL1 4083   6.841   3.839   4.553
  770POPC   GL2 4084   6.628   4.086   4.596
  770POPC   C1A 4085   6.614   3.444   4.798
  770POPC   D2A 4086   6.235   3.337   4.983
  770POPC   C3A 4087   6.235   3.459   5.435
  770POPC   C4A 4088   6.365   3.624   5.916
  770POPC   C1B 4089   6.660   3.898   5.027
  770POPC   C2B 4090   6.496   3.891   5.484
  770POPC   C3B 4091   6.713   3.967   5.945
  770POPC   C4B 4092   6.508   4.220   6.340
  771POPC   NC3 4093  12.224  12.098   4.366
  771POPC   PO4 4094  11.976  11.833   4.269
  771POPC   GL1 4095  12.082  11.757   4.647
  771POPC   GL2 4096  12.417  11.677   4.693
  771POPC   C1A 4097  12.254  12.103   4.937
  771POPC   D2A 4098  12.378  12.131   5.377
  771POPC   C3A 4099  12.170  12.299   5.703
  771POPC   C4A 4100  11.971  12.393   6.164
  771POPC   C1B 4101  12.644  11.707   5.079
  771POPC   C2B 4102  12.781  11.811   5.436
  771POPC   C3B 4103  12.701  12.140   5.739
  771POPC   C4B 4104  12.560  12.494   5.934
  772POPC   NC3 4105   9.469   9.071   4.851
  772POPC   PO4 4106   9.643   8.736   4.849
  772POPC   GL1 4107   9.769   8.870   5.161
  772POPC   GL2 4108   9.606   8.665   5.350
  772POPC   C1A 4109   9.693   9.149   5.517
  772POPC   D2A 4110   9.605   9.393   5.907
  772POPC   C3A 4111   9.665   9.026   6.178
  772POPC   C4A 4112   9.442   8.680   6.369
  772POPC   C1B 4113   9.208   8.448   5.459
  772POPC   C2B 4114   8.830   8.613   5.759
  772POPC   C3B 4115   8.868   8.954   6.098
  772POPC   C4B 4116   9.014   9.184   6.461
  773POPC   NC3 4117  11.564   2.964   3.698
  773POPC   PO4 4118  11.795   2.768   3.930
  773POPC   GL1 4119  11.819   2.741   4.326
  773POPC   GL2 4120  11.552   2.708   4.535
  773POPC   C1A 4121  11.926   2.340   4.649
  773POPC   D2A 4122  12.119   2.149   5.013
  773POPC   C3A 4123  12.271   2.273   5.435
  773POPC   C4A 4124  12.331   2.592   5.805
  773POPC   C1B 4125  11.512   2.515   4.964
  773POPC   C2B 4126  11.647   2.093   5.229
  773POPC   C3B 4127  11.588   1.874   5.665
  773POPC   C4B 4128  11.491   1.747   6.128
  774POPC   NC3 4129   3.535   1.515   3.514
  774POPC   PO4 4130   3.741   1.144   3.535
  774POPC   GL1 4131   3.873   1.320   3.867
  774POPC   GL2 4132   3.867   1.175   4.206
  774POPC   C1A 4133   3.686   1.671   4.160
  774POPC   D2A 4134   3.536   1.915   4.502
  774POPC   C3A 4135   3.292   1.757   4.861
  774POPC   C4A 4136   3.431   1.828   5.266
  774POPC   C1B 4137   4.118   1.324   4.602
  774POPC   C2B 4138   4.263   1.588   4.969
  774POPC   C3B 4139   4.296   1.983   5.278
  774POPC   C4B 4140   4.192   2.157   5.655
  775POPC   NC3 4141   8.127   2.816   4.742
  775POPC   PO4 4142   8.255   2.438   4.640
  775POPC   GL1 4143   8.195   2.316   5.002
  775POPC   GL2 4144   8.097   2.008   4.912
  775POPC   C1A 4145   8.119   2.217   5.473
  775POPC   D2A 4146   8.258   1.985   5.847
  775POPC   C3A 4147   8.140   2.317   6.161
  775POPC   C4A 4148   7.793   2.367   6.478
  775POPC   C1B 4149   8.264   1.765   5.275
  775POPC   C2B 4150   8.575   1.638   5.570
  775POPC   C3B 4151   8.735   1.390   5.957
  775POPC   C4B 4152   8.881   1.504   6.399
  776POPC   NC3 4153  11.438  10.422   4.814
  776POPC   PO4 4154  11.228  10.208   5.078
  776POPC   GL1 4155  11.287  10.465   5.291
  776POPC   GL2 4156  11.516  10.612   5.319
  776POPC   C1A 4157  11.375  10.286   5.732
  776POPC   D2A 4158  11.121  10.065   6.085
  776POPC   C3A 4159  10.872  10.356   6.327
  776POPC   C4A 4160  10.737  10.471   6.792
  776POPC   C1B 4161  11.469  10.804   5.701
  776POPC   C2B 4162  11.731  10.965   6.063
  776POPC   C3B 4163  11.825  11.240   6.428
  776POPC   C4B 4164  11.986  11.338   6.888
  777POPC   NC3 4165  13.707   4.939   4.091
  777POPC   PO4 4166  14.023   4.813   3.926
  777POPC   GL1 4167  13.981   4.598   4.229
  777POPC   GL2 4168  14.255   4.584   4.315
  777POPC   C1A 4169  13.891   4.686   4.705
  777POPC   D2A 4170  13.922   4.463   5.092
  777POPC   C3A 4171  14.303   4.722   5.311
  777POPC   C4A 4172  14.734   4.759   5.489
  777POPC   C1B 4173  14.353   4.851   4.621
  777POPC   C2B 4174  14.578   5.014   5.016
  777POPC   C3B 4175  14.996   4.977   5.158
  777POPC   C4B 4176  15.457   4.841   5.274
  778POPC   NC3 4177   5.058  12.944   4.396
  778POPC   PO4 4178   5.456  12.968   4.235
  778POPC   GL1 4179   5.454  12.767   4.623
  778POPC   GL2 4180   5.719  12.832   4.658
  778POPC   C1A 4181   5.059  12.758   4.882
  778POPC   D2A 4182   5.001  13.070   5.226
  778POPC   C3A 4183   4.685  13.002   5.531
  778POPC   C4A 4184   4.320  13.019   5.801
  778POPC   C1B 4185   5.639  12.379   4.810
  778POPC   C2B 4186   5.518  12.267   5.192
  778POPC   C3B 4187   5.269  12.242   5.533
  778POPC   C4B 4188   4.959  12.038   5.760
  779POPC   NC3 4189  13.564   0.406   3.837
  779POPC   PO4 4190  13.444   0.014   3.803
  779POPC   GL1 4191  13.517   0.054   4.128
  779POPC   GL2 4192  13.407  -0.106   4.333
  779POPC   C1A 4193  13.842   0.027   4.505
  779POPC   D2A 4194  14.203  -0.188   4.785
  779POPC   C3A 4195  14.414  -0.517   5.074
  779POPC   C4A 4196  14.475  -0.798   5.399
  779POPC   C1B 4197  13.432  -0.080   4.791
  779POPC   C2B 4198  13.427  -0.251   5.221
  779POPC   C3B 4199  13.414  -0.271   5.727
  779POPC   C4B 4200  13.173  -0.321   6.152
  780POPC   NC3 4201   3.202   3.543   3.929
  780POPC   PO4 4202   2.910   3.569   3.647
  780POPC   GL1 4203   2.599   3.772   3.739
  780POPC   GL2 4204   2.375   3.597   3.761
  780POPC   C1A 4205   2.364   3.941   4.126
  780POPC   D2A 4206   2.287   3.856   4.556
  780POPC   C3A 4207   2.495   4.073   4.873
  780POPC   C4A 4208   2.611   4.144   5.336
  780POPC   C1B 4209   2.380   3.484   4.258
  780POPC   C2B 4210   2.339   3.387   4.748
  780POPC   C3B 4211   2.382   3.665   5.157
  780POPC   C4B 4212   2.247   3.684   5.615
  781POPC   NC3 4213   5.772  13.271   4.024
  781POPC   PO4 4214   5.805  13.648   4.188
  781POPC   GL1 4215   5.809  13.536   4.525
  781POPC   GL2 4216   5.968  13.275   4.472
  781POPC   C1A 4217   5.831  13.294   4.906
  781POPC   D2A 4218   5.732  13.201   5.409
  781POPC   C3A 4219   5.315  13.190   5.666
  781POPC   C4A 4220   5.012  13.312   5.994
  781POPC   C1B 4221   6.211  13.009   4.758
  781POPC   C2B 4222   6.221  13.088   5.202
  781POPC   C3B 4223   6.189  13.344   5.550
  781POPC   C4B 4224   6.177  13.315   6.018
  782POPC   NC3 4225   7.988   1.405   4.295
  782POPC   PO4 4226   8.393   1.446   4.198
  782POPC   GL1 4227   8.602   1.435   4.523
  782POPC   GL2 4228   8.911   1.403   4.605
  782POPC   C1A 4229   8.559   1.823   4.816
  782POPC   D2A 4230   8.685   2.101   5.181
  782POPC   C3A 4231   8.758   2.105   5.642
  782POPC   C4A 4232   8.676   1.900   6.079
  782POPC   C1B 4233   9.001   1.334   5.069
  782POPC   C2B 4234   9.001   0.986   5.335
  782POPC   C3B 4235   9.029   0.912   5.816
  782POPC   C4B 4236   9.145   0.972   6.233
  783POPC   NC3 4237   7.759  12.144   3.780
  783POPC   PO4 4238   7.453  12.252   3.981
  783POPC   GL1 4239   7.461  12.219   4.356
  783POPC   GL2 4240   7.397  12.388   4.629
  783POPC   C1A 4241   7.752  12.075   4.741
  783POPC   D2A 4242   7.761  12.006   5.213
  783POPC   C3A 4243   7.788  12.250   5.575
  783POPC   C4A 4244   7.811  12.673   5.702
  783POPC   C1B 4245   7.483  12.388   5.017
  783POPC   C2B 4246   7.829  12.552   5.183
  783POPC   C3B 4247   7.734  12.955   5.214
  783POPC   C4B 4248   7.508  13.304   5.133
  784POPC   NC3 4249  11.631  10.913   4.665
  784POPC   PO4 4250  11.229  10.868   4.596
  784POPC   GL1 4251  11.347  10.817   4.992
  784POPC   GL2 4252  11.031  10.917   5.023
  784POPC   C1A 4253  11.592  11.101   5.225
  784POPC   D2A 4254  11.977  11.191   5.366
  784POPC   C3A 4255  12.114  10.957   5.724
  784POPC   C4A 4256  12.466  11.199   5.880
  784POPC   C1B 4257  11.045  10.782   5.472
  784POPC   C2B 4258  11.070  10.707   5.926
  784POPC   C3B 4259  11.294  10.768   6.329
  784POPC   C4B 4260  11.462  10.956   6.664
  785POPC   NC3 4261   3.459   6.653   4.209
  785POPC   PO4 4262   3.362   6.317   4.024
  785POPC   GL1 4263   3.510   6.257   4.426
  785POPC   GL2 4264   3.641   6.008   4.354
  785POPC   C1A 4265   3.489   6.595   4.792
  785POPC   D2A 4266   3.635   6.695   5.191
  785POPC   C3A 4267   3.240   6.621   5.461
  785POPC   C4A 4268   3.076   6.536   5.861
  785POPC   C1B 4269   3.582   6.042   4.876
  785POPC   C2B 4270   3.375   6.197   5.246
  785POPC   C3B 4271   3.239   6.144   5.664
  785POPC   C4B 4272   3.295   6.242   6.131
  786POPC   NC3 4273  11.316   5.275   4.230
  786POPC   PO4 4274  11.712   5.385   4.326
  786POPC   GL1 4275  12.022   5.430   4.635
  786POPC   GL2 4276  12.097   5.135   4.681
  786POPC   C1A 4277  12.057   5.776   4.925
  786POPC   D2A 4278  12.434   6.066   4.952
  786POPC   C3A 4279  12.497   6.460   5.211
  786POPC   C4A 4280  12.691   6.544   5.582
  786POPC   C1B 4281  12.004   5.239   5.102
  786POPC   C2B 4282  11.978   5.104   5.513
  786POPC   C3B 4283  11.803   5.043   5.975
  786POPC   C4B 4284  11.442   4.979   6.283
  787POPC   NC3 4285  12.377   1.044   4.078
  787POPC   PO4 4286  12.705   0.801   4.005
  787POPC   GL1 4287  12.857   0.716   4.397
  787POPC   GL2 4288  13.150   0.892   4.300
  787POPC   C1A 4289  12.980   0.782   4.833
  787POPC   D2A 4290  13.285   0.914   5.137
  787POPC   C3A 4291  13.252   1.357   5.120
  787POPC   C4A 4292  13.018   1.773   5.074
  787POPC   C1B 4293  13.421   1.102   4.637
  787POPC   C2B 4294  13.750   1.042   4.926
  787POPC   C3B 4295  14.131   0.851   5.127
  787POPC   C4B 4296  14.227   0.929   5.587
  788POPC   NC3 4297   1.556   1.389   3.939
  788POPC   PO4 4298   1.970   1.359   4.000
  788POPC   GL1 4299   2.115   1.534   4.376
  788POPC   GL2 4300   2.207   1.803   4.301
  788POPC   C1A 4301   1.911   1.437   4.769
  788POPC   D2A 4302   1.838   1.416   5.234
  788POPC   C3A 4303   2.118   1.520   5.530
  788POPC   C4A 4304   2.057   1.644   5.990
  788POPC   C1B 4305   2.015   1.906   4.705
  788POPC   C2B 4306   2.044   1.902   5.133
  788POPC   C3B 4307   1.985   2.039   5.584
  788POPC   C4B 4308   1.812   2.103   6.004
  789POPC   NC3 4309  13.684   2.306   3.970
  789POPC   PO4 4310  13.562   1.946   3.902
  789POPC   GL1 4311  13.605   2.000   4.365
  789POPC   GL2 4312  13.855   2.031   4.408
  789POPC   C1A 4313  13.546   1.624   4.701
  789POPC   D2A 4314  13.789   1.512   5.132
  789POPC   C3A 4315  13.733   1.059   5.404
  789POPC   C4A 4316  13.720   0.602   5.284
  789POPC   C1B 4317  14.220   1.917   4.511
  789POPC   C2B 4318  14.659   2.056   4.752
  789POPC   C3B 4319  14.797   2.503   4.769
  789POPC   C4B 4320  14.869   2.920   4.560
  790POPC   NC3 4321   6.739   2.065   3.860
  790POPC   PO4 4322   6.685   2.278   4.229
  790POPC   GL1 4323   6.303   2.334   4.352
  790POPC   GL2 4324   6.175   2.158   4.439
  790POPC   C1A 4325   6.040   2.662   4.559
  790POPC   D2A 4326   5.851   3.057   4.668
  790POPC   C3A 4327   5.789   3.204   5.097
  790POPC   C4A 4328   5.757   3.428   5.549
  790POPC   C1B 4329   6.367   2.078   4.826
  790POPC   C2B 4330   6.563   2.392   5.147
  790POPC   C3B 4331   6.370   2.445   5.512
  790POPC   C4B 4332   5.955   2.510   5.758
  791POPC   NC3 4333   6.782   2.262   4.733
  791POPC   PO4 4334   6.839   2.610   4.545
  791POPC   GL1 4335   6.450   2.600   4.737
  791POPC   GL2 4336   6.398   2.935   4.679
  791POPC   C1A 4337   6.078   2.434   4.992
  791POPC   D2A 4338   5.728   2.347   5.304
  791POPC   C3A 4339   5.423   2.062   5.141
  791POPC   C4A 4340   5.144   1.700   5.063
  791POPC   C1B 4341   6.262   2.851   5.123
  791POPC   C2B 4342   6.143   2.967   5.567
  791POPC   C3B 4343   6.035   3.263   5.936
  791POPC   C4B 4344   5.837   3.670   6.008
  792POPC   NC3 4345   2.755   0.369   4.187
  792POPC   PO4 4346   2.519   0.625   4.033
  792POPC   GL1 4347   2.439   0.901   4.402
  792POPC   GL2 4348   2.130   0.822   4.360
  792POPC   C1A 4349   2.564   1.253   4.646
  792POPC   D2A 4350   2.880   1.530   4.942
  792POPC   C3A 4351   2.851   1.652   5.372
  792POPC   C4A 4352   2.546   1.689   5.756
  792POPC   C1B 4353   2.145   0.999   4.791
  792POPC   C2B 4354   2.127   0.924   5.202
  792POPC   C3B 4355   2.310   0.841   5.630
  792POPC   C4B 4356   2.625   0.888   5.993
  793POPC   NC3 4357   2.000   3.962   3.648
  793POPC   PO4 4358   2.297   4.102   3.504
  793POPC   GL1 4359   2.064   4.388   3.825
  793POPC   GL2 4360   1.866   4.247   4.015
  793POPC   C1A 4361   2.362   4.486   4.166
  793POPC   D2A 4362   2.577   4.541   4.592
  793POPC   C3A 4363   2.487   4.545   5.057
  793POPC   C4A 4364   2.419   4.584   5.517
  793POPC   C1B 4365   1.716   4.132   4.464
  793POPC   C2B 4366   1.928   4.019   4.908
  793POPC   C3B 4367   2.076   4.075   5.345
  793POPC   C4B 4368   2.196   4.183   5.748
  794POPC   NC3 4369  12.019   4.994   4.198
  794POPC   PO4 4370  12.260   5.312   4.174
  794POPC   GL1 4371  12.475   5.222   4.413
  794POPC   GL2 4372  12.499   5.457   4.624
  794POPC   C1A 4373  12.524   4.832   4.723
  794POPC   D2A 4374  12.711   4.573   5.132
  794POPC   C3A 4375  13.171   4.453   5.235
  794POPC   C4A 4376  13.525   4.266   5.429
  794POPC   C1B 4377  12.447   5.505   5.077
  794POPC   C2B 4378  12.227   5.540   5.425
  794POPC   C3B 4379  12.022   5.488   5.833
  794POPC   C4B 4380  11.845   5.500   6.287
  795POPC   NC3 4381   4.637   8.870   4.086
  795POPC   PO4 4382   4.526   9.204   3.899
  795POPC   GL1 4383   4.447   9.563   4.103
  795POPC   GL2 4384   4.150   9.389   4.132
  795POPC   C1A 4385   4.455   9.965   4.384
  795POPC   D2A 4386   4.285  10.133   4.755
  795POPC   C3A 4387   4.429  10.279   5.161
  795POPC   C4A 4388   4.647  10.448   5.508
  795POPC   C1B 4389   4.317   9.433   4.543
  795POPC   C2B 4390   4.581   9.433   4.934
  795POPC   C3B 4391   4.480   9.365   5.403
  795POPC   C4B 4392   4.248   9.429   5.750
  796POPC   NC3 4393   0.367   7.263   4.171
  796POPC   PO4 4394   0.740   7.468   4.143
  796POPC   GL1 4395   0.808   7.154   4.400
  796POPC   GL2 4396   1.099   7.168   4.398
  796POPC   C1A 4397   0.779   6.864   4.755
  796POPC   D2A 4398   0.808   6.734   5.178
  796POPC   C3A 4399   0.902   6.416   5.442
  796POPC   C4A 4400   0.698   6.186   5.811
  796POPC   C1B 4401   1.078   7.238   4.863
  796POPC   C2B 4402   0.937   7.207   5.327
  796POPC   C3B 4403   0.811   6.949   5.692
  796POPC   C4B 4404   0.697   6.642   6.042
  797POPC   NC3 4405  10.568   4.191   3.969
  797POPC   PO4 4406  10.689   3.944   4.239
  797POPC   GL1 4407  10.823   4.091   4.579
  797POPC   GL2 4408  10.868   3.791   4.714
  797POPC   C1A 4409  10.537   4.324   4.876
  797POPC   D2A 4410  10.545   4.681   5.238
  797POPC   C3A 4411  10.246   4.793   5.606
  797POPC   C4A 4412   9.843   4.919   5.750
  797POPC   C1B 4413  10.622   3.814   5.107
  797POPC   C2B 4414  10.526   4.183   5.407
  797POPC   C3B 4415  10.144   4.351   5.600
  797POPC   C4B 4416  10.066   4.524   6.025
  798POPC   NC3 4417   0.837   8.862   4.333
  798POPC   PO4 4418   0.979   9.138   4.078
  798POPC   GL1 4419   0.984   9.331   4.456
  798POPC   GL2 4420   1.234   9.401   4.502
  798POPC   C1A 4421   0.675   9.574   4.747
  798POPC   D2A 4422   0.549   9.996   4.873
  798POPC   C3A 4423   0.635   9.968   5.330
  798POPC   C4A 4424   0.432   9.762   5.693
  798POPC   C1B 4425   1.186   9.373   4.938
  798POPC   C2B 4426   1.046   9.105   5.304
  798POPC   C3B 4427   0.751   9.210   5.600
  798POPC   C4B 4428   0.691   9.159   6.086
  799POPC   NC3 4429   5.709  11.570   4.125
  799POPC   PO4 4430   5.728  11.954   4.256
  799POPC   GL1 4431   5.910  12.091   4.590
  799POPC   GL2 4432   6.103  12.361   4.651
  799POPC   C1A 4433   5.919  11.983   5.035
  799POPC   D2A 4434   5.913  12.090   5.450
  799POPC   C3A 4435   5.666  12.372   5.749
  799POPC   C4A 4436   5.547  12.749   6.014
  799POPC   C1B 4437   6.059  12.639   5.037
  799POPC   C2B 4438   5.853  12.713   5.398
  799POPC   C3B 4439   5.931  12.944   5.777
  799POPC   C4B 4440   5.709  13.318   6.004
  800POPC   NC3 4441  13.428   5.741   3.609
  800POPC   PO4 4442  13.617   5.392   3.481
  800POPC   GL1 4443  13.606   5.362   3.892
  800POPC   GL2 4444  13.343   5.291   4.029
  800POPC   C1A 4445  13.815   5.484   4.264
  800POPC   D2A 4446  14.018   5.781   4.575
  800POPC   C3A 4447  13.972   5.729   5.064
  800POPC   C4A 4448  14.164   5.960   5.342
  800POPC   C1B 4449  13.487   5.266   4.505
  800POPC   C2B 4450  13.554   5.225   4.962
  800POPC   C3B 4451  13.399   5.225   5.403
  800POPC   C4B 4452  13.053   5.280   5.724
  801POPC   NC3 4453   7.729   2.955   4.203
  801POPC   PO4 4454   7.929   2.632   4.353
  801POPC   GL1 4455   7.802   2.504   4.810
  801POPC   GL2 4456   7.664   2.301   4.953
  801POPC   C1A 4457   7.890   2.626   5.266
  801POPC   D2A 4458   8.067   2.815   5.664
  801POPC   C3A 4459   7.991   2.792   6.125
  801POPC   C4A 4460   8.151   2.698   6.574
  801POPC   C1B 4461   7.585   2.229   5.356
  801POPC   C2B 4462   7.562   1.944   5.708
  801POPC   C3B 4463   7.528   1.564   6.006
  801POPC   C4B 4464   7.788   1.406   6.278
  802POPC   NC3 4465  10.523  13.674   4.207
  802POPC   PO4 4466  10.483  13.306   4.279
  802POPC   GL1 4467  10.452  13.034   4.597
  802POPC   GL2 4468  10.211  13.073   4.789
  802POPC   C1A 4469  10.322  12.596   4.741
  802POPC   D2A 4470  10.279  12.440   5.155
  802POPC   C3A 4471   9.957  12.670   5.292
  802POPC   C4A 4472   9.836  13.071   5.471
  802POPC   C1B 4473  10.325  12.958   5.178
  802POPC   C2B 4474  10.476  12.797   5.607
  802POPC   C3B 4475  10.600  12.634   6.030
  802POPC   C4B 4476  10.474  12.340   6.348
  803POPC   NC3 4477   7.151   9.063   4.134
  803POPC   PO4 4478   7.423   8.791   4.300
  803POPC   GL1 4479   7.528   8.753   4.651
  803POPC   GL2 4480   7.570   8.560   4.889
  803POPC   C1A 4481   7.677   9.129   4.912
  803POPC   D2A 4482   7.809   9.532   4.964
  803POPC   C3A 4483   7.953   9.748   5.372
  803POPC   C4A 4484   8.192  10.045   5.585
  803POPC   C1B 4485   7.523   8.648   5.342
  803POPC   C2B 4486   7.708   8.926   5.639
  803POPC   C3B 4487   7.860   9.339   5.785
  803POPC   C4B 4488   8.201   9.590   5.820
  804POPC   NC3 4489   9.522  12.865   3.873
  804POPC   PO4 4490   9.565  12.727   4.195
  804POPC   GL1 4491   9.577  12.687   4.565
  804POPC   GL2 4492   9.809  12.790   4.656
  804POPC   C1A 4493   9.817  12.361   4.889
  804POPC   D2A 4494   9.853  12.100   5.259
  804POPC   C3A 4495   9.714  12.124   5.688
  804POPC   C4A 4496   9.508  12.028   6.109
  804POPC   C1B 4497   9.610  12.999   5.010
  804POPC   C2B 4498   9.375  12.922   5.404
  804POPC   C3B 4499   9.101  12.871   5.754
  804POPC   C4B 4500   9.034  12.993   6.206
  805POPC   NC3 4501   0.603   7.691   3.670
  805POPC   PO4 4502   0.362   7.750   3.958
  805POPC   GL1 4503   0.328   7.688   4.348
  805POPC   GL2 4504  -0.015   7.674   4.386
  805POPC   C1A 4505   0.392   8.039   4.669
  805POPC   D2A 4506   0.748   8.341   4.802
  805POPC   C3A 4507   0.666   8.675   5.146
  805POPC   C4A 4508   0.778   8.687   5.588
  805POPC   C1B 4509   0.233   7.604   4.822
  805POPC   C2B 4510   0.113   7.611   5.239
  805POPC   C3B 4511   0.034   7.490   5.627
  805POPC   C4B 4512   0.116   7.434   6.069
  806POPC   NC3 4513   1.852   8.687   3.972
  806POPC   PO4 4514   1.819   9.007   3.676
  806POPC   GL1 4515   1.810   9.187   4.026
  806POPC   GL2 4516   1.995   9.367   4.118
  806POPC   C1A 4517   1.525   8.965   4.329
  806POPC   D2A 4518   1.310   8.940   4.718
  806POPC   C3A 4519   0.880   8.993   4.866
  806POPC   C4A 4520   0.595   9.276   5.111
  806POPC   C1B 4521   1.740   9.313   4.503
  806POPC   C2B 4522   1.648   9.183   4.950
  806POPC   C3B 4523   1.753   9.156   5.418
  806POPC   C4B 4524   1.720   8.875   5.762
  807POPC   NC3 4525  13.665   6.527   3.628
  807POPC   PO4 4526  13.573   6.171   3.742
  807POPC   GL1 4527  13.868   6.278   3.967
  807POPC   GL2 4528  13.908   6.130   4.193
  807POPC   C1A 4529  13.877   6.652   4.260
  807POPC   D2A 4530  13.900   7.063   4.518
  807POPC   C3A 4531  14.362   7.119   4.719
  807POPC   C4A 4532  14.529   7.312   5.071
  807POPC   C1B 4533  13.787   6.192   4.587
  807POPC   C2B 4534  13.765   6.212   5.020
  807POPC   C3B 4535  13.711   5.990   5.363
  807POPC   C4B 4536  13.861   5.631   5.612
  808POPC   NC3 4537   0.686   7.991   4.318
  808POPC   PO4 4538   1.005   8.213   4.215
  808POPC   GL1 4539   1.188   8.026   4.495
  808POPC   GL2 4540   1.123   7.713   4.352
  808POPC   C1A 4541   1.264   8.179   4.924
  808POPC   D2A 4542   1.175   8.558   5.157
  808POPC   C3A 4543   1.233   8.602   5.558
  808POPC   C4A 4544   1.380   8.503   5.967
  808POPC   C1B 4545   1.271   7.744   4.794
  808POPC   C2B 4546   1.253   7.642   5.256
  808POPC   C3B 4547   0.905   7.613   5.606
  808POPC   C4B 4548   0.530   7.394   5.795
  809POPC   NC3 4549   3.905   6.051   3.795
  809POPC   PO4 4550   4.138   5.924   4.108
  809POPC   GL1 4551   4.061   5.885   4.481
  809POPC   GL2 4552   4.011   6.193   4.591
  809POPC   C1A 4553   3.969   5.782   4.904
  809POPC   D2A 4554   3.834   5.961   5.354
  809POPC   C3A 4555   3.784   6.326   5.523
  809POPC   C4A 4556   3.595   6.617   5.820
  809POPC   C1B 4557   4.013   6.399   5.006
  809POPC   C2B 4558   4.370   6.322   5.303
  809POPC   C3B 4559   4.495   6.484   5.722
  809POPC   C4B 4560   4.666   6.386   6.122
  810POPC   NC3 4561   0.035  10.111   3.978
  810POPC   PO4 4562   0.319   9.910   3.763
  810POPC   GL1 4563   0.373   9.894   4.138
  810POPC   GL2 4564   0.608  10.014   4.310
  810POPC   C1A 4565   0.122   9.941   4.508
  810POPC   D2A 4566  -0.169   9.653   4.749
  810POPC   C3A 4567  -0.399   9.683   5.159
  810POPC   C4A 4568  -0.539   9.669   5.590
  810POPC   C1B 4569   1.001   9.940   4.572
  810POPC   C2B 4570   1.028   9.867   5.051
  810POPC   C3B 4571   1.022   9.634   5.444
  810POPC   C4B 4572   1.014   9.587   5.901
  811POPC   NC3 4573   5.846   9.362   4.602
  811POPC   PO4 4574   6.163   9.531   4.484
  811POPC   GL1 4575   6.245   9.583   4.828
  811POPC   GL2 4576   6.489   9.672   4.828
  811POPC   C1A 4577   6.163   9.916   5.135
  811POPC   D2A 4578   6.256  10.169   5.512
  811POPC   C3A 4579   6.494  10.383   5.805
  811POPC   C4A 4580   6.716  10.804   5.960
  811POPC   C1B 4581   6.707   9.929   5.156
  811POPC   C2B 4582   6.808  10.070   5.548
  811POPC   C3B 4583   6.992  10.292   5.881
  811POPC   C4B 4584   7.140  10.557   6.264
  812POPC   NC3 4585  12.138   8.867   4.755
  812POPC   PO4 4586  11.764   8.875   4.630
  812POPC   GL1 4587  11.724   8.905   5.095
  812POPC   GL2 4588  11.764   8.620   5.096
  812POPC   C1A 4589  11.514   8.873   5.490
  812POPC   D2A 4590  11.255   8.667   5.821
  812POPC   C3A 4591  11.437   8.254   6.036
  812POPC   C4A 4592  11.397   7.858   6.261
  812POPC   C1B 4593  11.958   8.696   5.503
  812POPC   C2B 4594  12.031   8.372   5.885
  812POPC   C3B 4595  11.828   7.904   5.850
  812POPC   C4B 4596  11.657   7.437   5.940
  813POPC   NC3 4597   3.901   7.059   3.707
  813POPC   PO4 4598   3.577   7.093   3.931
  813POPC   GL1 4599   3.592   7.266   4.332
  813POPC   GL2 4600   3.383   7.054   4.461
  813POPC   C1A 4601   3.359   7.515   4.683
  813POPC   D2A 4602   3.024   7.530   5.012
  813POPC   C3A 4603   2.923   7.341   5.391
  813POPC   C4A 4604   2.767   7.349   5.810
  813POPC   C1B 4605   3.331   7.097   4.918
  813POPC   C2B 4606   3.377   7.092   5.357
  813POPC   C3B 4607   3.163   7.060   5.797
  813POPC   C4B 4608   3.007   6.959   6.218
  814POPC   NC3 4609   9.157   8.502   4.003
  814POPC   PO4 4610   9.325   8.642   4.347
  814POPC   GL1 4611   9.281   8.432   4.861
  814POPC   GL2 4612   9.044   8.651   4.953
  814POPC   C1A 4613   9.532   8.140   5.109
  814POPC   D2A 4614   9.575   7.820   5.449
  814POPC   C3A 4615   9.569   7.825   5.883
  814POPC   C4A 4616   9.756   8.149   6.209
  814POPC   C1B 4617   8.889   8.889   5.336
  814POPC   C2B 4618   8.742   9.232   5.665
  814POPC   C3B 4619   8.592   9.387   6.058
  814POPC   C4B 4620   8.456   9.253   6.540
  815POPC   NC3 4621   1.921   4.813   3.661
  815POPC   PO4 4622   2.060   5.160   3.710
  815POPC   GL1 4623   1.813   5.157   4.111
  815POPC   GL2 4624   1.976   5.331   4.373
  815POPC   C1A 4625   1.982   4.778   4.311
  815POPC   D2A 4626   2.023   4.472   4.675
  815POPC   C3A 4627   1.984   4.507   5.180
  815POPC   C4A 4628   1.842   4.623   5.619
  815POPC   C1B 4629   2.017   5.402   4.795
  815POPC   C2B 4630   1.867   5.501   5.236
  815POPC   C3B 4631   1.973   5.626   5.664
  815POPC   C4B 4632   2.215   5.420   6.011
  816POPC   NC3 4633   8.140   4.226   4.076
  816POPC   PO4 4634   7.805   4.075   3.970
  816POPC   GL1 4635   7.677   4.088   4.298
  816POPC   GL2 4636   7.777   3.895   4.447
  816POPC   C1A 4637   7.361   4.425   4.433
  816POPC   D2A 4638   7.357   4.792   4.719
  816POPC   C3A 4639   7.608   4.799   5.129
  816POPC   C4A 4640   7.902   4.771   5.472
  816POPC   C1B 4641   7.582   3.890   4.826
  816POPC   C2B 4642   7.311   3.836   5.255
  816POPC   C3B 4643   6.977   3.718   5.602
  816POPC   C4B 4644   7.005   3.503   6.037
  817POPC   NC3 4645  11.381  11.352   4.391
  817POPC   PO4 4646  11.466  11.680   4.290
  817POPC   GL1 4647  11.495  11.950   4.607
  817POPC   GL2 4648  11.763  12.061   4.616
  817POPC   C1A 4649  11.581  11.826   5.033
  817POPC   D2A 4650  11.425  11.643   5.455
  817POPC   C3A 4651  11.794  11.415   5.724
  817POPC   C4A 4652  12.071  11.456   6.099
  817POPC   C1B 4653  11.853  12.462   4.852
  817POPC   C2B 4654  11.852  12.489   5.310
  817POPC   C3B 4655  11.795  12.589   5.727
  817POPC   C4B 4656  11.670  12.754   6.113
  818POPC   NC3 4657   1.172  11.717   3.890
  818POPC   PO4 4658   0.805  11.805   4.030
  818POPC   GL1 4659   0.826  11.992   4.438
  818POPC   GL2 4660   0.786  12.279   4.312
  818POPC   C1A 4661   1.081  11.876   4.762
  818POPC   D2A 4662   1.257  11.978   5.220
  818POPC   C3A 4663   1.424  11.908   5.622
  818POPC   C4A 4664   1.529  11.953   6.103
  818POPC   C1B 4665   0.631  12.291   4.748
  818POPC   C2B 4666   0.776  12.108   5.095
  818POPC   C3B 4667   0.781  12.108   5.526
  818POPC   C4B 4668   0.942  11.951   5.890
  819POPC   NC3 4669   0.092   5.291   3.841
  819POPC   PO4 4670   0.408   5.511   3.780
  819POPC   GL1 4671   0.323   5.452   4.186
  819POPC   GL2 4672   0.320   5.153   4.228
  819POPC   C1A 4673   0.726   5.474   4.411
  819POPC   D2A 4674   0.935   5.296   4.702
  819POPC   C3A 4675   1.309   4.933   4.759
  819POPC   C4A 4676   1.790   4.933   4.857
  819POPC   C1B 4677   0.030   5.234   4.652
  819POPC   C2B 4678   0.071   5.162   5.114
  819POPC   C3B 4679  -0.079   5.140   5.523
  819POPC   C4B 4680  -0.220   4.964   5.928
  820POPC   NC3 4681   3.141  10.312   3.910
  820POPC   PO4 4682   3.293  10.161   3.556
  820POPC   GL1 4683   3.521   9.983   3.768
  820POPC   GL2 4684   3.727  10.212   3.825
  820POPC   C1A 4685   3.568  10.067   4.235
  820POPC   D2A 4686   3.747  10.105   4.669
  820POPC   C3A 4687   3.951  10.388   5.005
  820POPC   C4A 4688   4.048  10.435   5.478
  820POPC   C1B 4689   4.020  10.254   4.170
  820POPC   C2B 4690   4.191  10.630   4.474
  820POPC   C3B 4691   4.451  10.720   4.848
  820POPC   C4B 4692   4.679  10.933   5.137
  821POPC   NC3 4693  11.681   9.640   4.686
  821POPC   PO4 4694  11.463   9.979   4.592
  821POPC   GL1 4695  11.597   9.899   5.091
  821POPC   GL2 4696  11.710  10.145   5.253
  821POPC   C1A 4697  11.566   9.510   5.327
  821POPC   D2A 4698  11.692   9.373   5.727
  821POPC   C3A 4699  11.800   9.000   5.974
  821POPC   C4A 4700  11.676   8.641   6.237
  821POPC   C1B 4701  11.878  10.053   5.653
  821POPC   C2B 4702  11.718   9.810   6.019
  821POPC   C3B 4703  11.795   9.495   6.312
  821POPC   C4B 4704  11.716   9.429   6.755
  822POPC   NC3 4705   9.910   9.252   4.647
  822POPC   PO4 4706   9.666   9.550   4.742
  822POPC   GL1 4707   9.645   9.461   5.107
  822POPC   GL2 4708   9.933   9.407   5.150
  822POPC   C1A 4709   9.559   9.786   5.402
  822POPC   D2A 4710   9.450   9.955   5.798
  822POPC   C3A 4711   9.073  10.138   5.847
  822POPC   C4A 4712   8.673  10.106   6.128
  822POPC   C1B 4713  10.187   9.010   5.061
  822POPC   C2B 4714  10.254   8.548   4.899
  822POPC   C3B 4715  10.451   8.189   4.871
  822POPC   C4B 4716  10.380   7.760   5.060
  823POPC   NC3 4717  13.181   2.821   4.248
  823POPC   PO4 4718  13.549   2.824   4.250
  823POPC   GL1 4719  13.528   2.497   4.501
  823POPC   GL2 4720  13.306   2.346   4.381
  823POPC   C1A 4721  13.816   2.504   4.841
  823POPC   D2A 4722  13.978   2.687   5.231
  823POPC   C3A 4723  14.088   2.276   5.446
  823POPC   C4A 4724  13.928   1.786   5.518
  823POPC   C1B 4725  13.424   2.200   4.828
  823POPC   C2B 4726  13.459   1.909   5.208
  823POPC   C3B 4727  13.460   1.583   5.492
  823POPC   C4B 4728  13.411   1.159   5.731
  824POPC   NC3 4729   5.507   2.506   3.904
  824POPC   PO4 4730   5.721   2.253   4.125
  824POPC   GL1 4731   5.582   2.328   4.443
  824POPC   GL2 4732   5.737   2.341   4.675
  824POPC   C1A 4733   5.286   2.339   4.766
  824POPC   D2A 4734   5.207   2.550   5.094
  824POPC   C3A 4735   5.276   2.347   5.523
  824POPC   C4A 4736   5.559   2.156   5.805
  824POPC   C1B 4737   5.659   2.699   4.914
  824POPC   C2B 4738   5.521   2.827   5.346
  824POPC   C3B 4739   5.101   2.850   5.524
  824POPC   C4B 4740   4.776   2.565   5.746
  825POPC   NC3 4741   3.893   3.487   3.942
  825POPC   PO4 4742   3.668   3.785   3.796
  825POPC   GL1 4743   3.521   3.992   4.074
  825POPC   GL2 4744   3.494   3.866   4.361
  825POPC   C1A 4745   3.324   4.330   4.309
  825POPC   D2A 4746   3.434   4.602   4.689
  825POPC   C3A 4747   3.167   4.690   5.039
  825POPC   C4A 4748   2.883   4.607   5.406
  825POPC   C1B 4749   3.575   3.613   4.731
  825POPC   C2B 4750   3.382   3.395   5.065
  825POPC   C3B 4751   3.174   3.468   5.489
  825POPC   C4B 4752   2.773   3.513   5.668
  826POPC   NC3 4753  11.402   4.434   4.301
  826POPC   PO4 4754  11.013   4.419   4.296
  826POPC   GL1 4755  11.081   4.487   4.698
  826POPC   GL2 4756  11.358   4.418   4.829
  826POPC   C1A 4757  11.023   4.190   5.051
  826POPC   D2A 4758  10.916   4.401   5.508
  826POPC   C3A 4759  10.639   4.423   5.862
  826POPC   C4A 4760  10.587   4.559   6.315
  826POPC   C1B 4761  11.372   4.559   5.268
  826POPC   C2B 4762  11.423   4.787   5.666
  826POPC   C3B 4763  11.574   4.570   6.103
  826POPC   C4B 4764  11.885   4.235   6.292
  827POPC   NC3 4765  13.306   0.350   3.347
  827POPC   PO4 4766  13.056   0.406   3.616
  827POPC   GL1 4767  13.189   0.571   3.997
  827POPC   GL2 4768  13.143   0.334   4.125
  827POPC   C1A 4769  13.555   0.880   4.156
  827POPC   D2A 4770  13.903   1.117   4.382
  827POPC   C3A 4771  14.230   0.954   4.655
  827POPC   C4A 4772  14.606   1.002   4.995
  827POPC   C1B 4773  13.489   0.446   4.375
  827POPC   C2B 4774  13.470   0.533   4.852
  827POPC   C3B 4775  13.251   0.334   5.171
  827POPC   C4B 4776  13.274   0.186   5.611
  828POPC   NC3 4777   2.811   7.944   3.746
  828POPC   PO4 4778   2.425   7.898   3.826
  828POPC   GL1 4779   2.379   8.129   4.211
  828POPC   GL2 4780   2.227   8.400   4.108
  828POPC   C1A 4781   2.119   8.100   4.563
  828POPC   D2A 4782   2.143   8.248   4.965
  828POPC   C3A 4783   2.104   7.894   5.304
  828POPC   C4A 4784   1.693   7.587   5.481
  828POPC   C1B 4785   2.499   8.478   4.506
  828POPC   C2B 4786   2.533   8.603   4.961
  828POPC   C3B 4787   2.429   8.395   5.383
  828POPC   C4B 4788   2.085   8.535   5.669
  829POPC   NC3 4789   6.113  10.176   4.401
  829POPC   PO4 4790   6.288  10.472   4.196
  829POPC   GL1 4791   6.073  10.752   4.515
  829POPC   GL2 4792   5.773  10.700   4.507
  829POPC   C1A 4793   5.970  11.047   4.849
  829POPC   D2A 4794   6.142  11.322   5.185
  829POPC   C3A 4795   6.575  11.334   5.254
  829POPC   C4A 4796   6.907  11.013   5.324
  829POPC   C1B 4797   5.949  10.541   4.901
  829POPC   C2B 4798   5.824  10.361   5.304
  829POPC   C3B 4799   5.487  10.131   5.564
  829POPC   C4B 4800   5.518  10.223   6.027
  830POPC   NC3 4801  11.535   3.726   4.193
  830POPC   PO4 4802  11.674   4.064   4.050
  830POPC   GL1 4803  11.830   4.094   4.378
  830POPC   GL2 4804  11.760   4.282   4.546
  830POPC   C1A 4805  12.179   3.873   4.589
  830POPC   D2A 4806  12.425   3.771   4.916
  830POPC   C3A 4807  12.412   3.661   5.371
  830POPC   C4A 4808  12.204   3.447   5.743
  830POPC   C1B 4809  11.860   4.260   5.013
  830POPC   C2B 4810  11.909   4.577   5.381
  830POPC   C3B 4811  12.297   4.670   5.602
  830POPC   C4B 4812  12.680   4.496   5.597
  831POPC   NC3 4813   9.664   8.210   4.619
  831POPC   PO4 4814   9.595   7.842   4.478
  831POPC   GL1 4815   9.561   7.633   4.765
  831POPC   GL2 4816   9.770   7.758   4.982
  831POPC   C1A 4817   9.212   7.725   5.068
  831POPC   D2A 4818   8.975   7.650   5.420
  831POPC   C3A 4819   8.986   7.459   5.845
  831POPC   C4A 4820   9.156   7.402   6.288
  831POPC   C1B 4821  10.035   8.104   5.206
  831POPC   C2B 4822  10.414   8.185   5.361
  831POPC   C3B 4823  10.493   8.064   5.843
  831POPC   C4B 4824  10.621   8.071   6.301
  832POPC   NC3 4825   7.271  10.726   4.533
  832POPC   PO4 4826   7.223  10.773   4.159
  832POPC   GL1 4827   6.891  10.892   4.380
  832POPC   GL2 4828   6.586  10.830   4.548
  832POPC   C1A 4829   6.942  11.046   4.826
  832POPC   D2A 4830   7.342  11.136   5.085
  832POPC   C3A 4831   7.518  11.101   5.525
  832POPC   C4A 4832   7.646  11.279   5.931
  832POPC   C1B 4833   6.429  10.847   5.008
  832POPC   C2B 4834   6.260  10.808   5.392
  832POPC   C3B 4835   6.176  10.890   5.855
  832POPC   C4B 4836   5.854  10.973   6.208
  833POPC   NC3 4837  12.128  13.363   3.775
  833POPC   PO4 4838  12.378  13.278   4.077
  833POPC   GL1 4839  12.518  13.609   4.280
  833POPC   GL2 4840  12.603  13.472   4.498
  833POPC   C1A 4841  12.802  13.955   4.392
  833POPC   D2A 4842  13.023  14.294   4.646
  833POPC   C3A 4843  12.782  14.316   4.997
  833POPC   C4A 4844  12.444  14.498   5.182
  833POPC   C1B 4845  12.873  13.284   4.802
  833POPC   C2B 4846  12.889  13.337   5.243
  833POPC   C3B 4847  12.946  13.575   5.617
  833POPC   C4B 4848  12.802  13.974   5.865
  834POPC   NC3 4849   7.886   0.588   4.147
  834POPC   PO4 4850   8.170   0.840   4.227
  834POPC   GL1 4851   8.163   0.569   4.486
  834POPC   GL2 4852   8.347   0.515   4.584
  834POPC   C1A 4853   7.994   0.429   4.950
  834POPC   D2A 4854   7.909   0.166   5.344
  834POPC   C3A 4855   8.080   0.331   5.739
  834POPC   C4A 4856   7.729   0.491   6.023
  834POPC   C1B 4857   8.533   0.262   4.964
  834POPC   C2B 4858   8.750  -0.147   4.887
  834POPC   C3B 4859   8.939  -0.563   4.855
  834POPC   C4B 4860   9.230  -0.840   4.688
  835POPC   NC3 4861  11.992   9.623   4.206
  835POPC   PO4 4862  12.025   9.341   4.454
  835POPC   GL1 4863  11.884   9.359   4.964
  835POPC   GL2 4864  12.128   9.471   4.996
  835POPC   C1A 4865  12.017   9.116   5.325
  835POPC   D2A 4866  12.325   9.141   5.707
  835POPC   C3A 4867  12.288   8.917   6.102
  835POPC   C4A 4868  12.327   8.546   6.331
  835POPC   C1B 4869  12.044   9.612   5.440
  835POPC   C2B 4870  12.169   9.559   5.891
  835POPC   C3B 4871  12.312   9.617   6.292
  835POPC   C4B 4872  12.185   9.338   6.678
  836POPC   NC3 4873   4.361   5.485   4.037
  836POPC   PO4 4874   4.718   5.446   3.908
  836POPC   GL1 4875   4.897   5.396   4.244
  836POPC   GL2 4876   5.020   5.181   4.169
  836POPC   C1A 4877   4.662   5.238   4.607
  836POPC   D2A 4878   4.998   5.198   4.957
  836POPC   C3A 4879   4.940   5.118   5.382
  836POPC   C4A 4880   5.217   4.940   5.657
  836POPC   C1B 4881   5.312   5.111   4.551
  836POPC   C2B 4882   5.409   4.922   4.951
  836POPC   C3B 4883   5.618   4.769   5.363
  836POPC   C4B 4884   5.799   4.343   5.471
  837POPC   NC3 4885   6.457  13.155   3.875
  837POPC   PO4 4886   6.239  13.433   4.019
  837POPC   GL1 4887   6.264  13.602   4.408
  837POPC   GL2 4888   6.524  13.592   4.505
  837POPC   C1A 4889   6.047  13.705   4.809
  837POPC   D2A 4890   5.941  13.670   5.234
  837POPC   C3A 4891   6.165  13.915   5.518
  837POPC   C4A 4892   6.183  13.875   5.953
  837POPC   C1B 4893   6.795  13.231   4.676
  837POPC   C2B 4894   6.707  12.909   5.025
  837POPC   C3B 4895   6.524  12.788   5.385
  837POPC   C4B 4896   6.208  12.531   5.653
  838POPC   NC3 4897   4.916   4.754   3.941
  838POPC   PO4 4898   4.674   4.519   4.148
  838POPC   GL1 4899   4.379   4.619   4.365
  838POPC   GL2 4900   4.310   4.388   4.540
  838POPC   C1A 4901   4.170   4.929   4.628
  838POPC   D2A 4902   4.093   5.171   5.084
  838POPC   C3A 4903   4.000   5.472   5.471
  838POPC   C4A 4904   3.755   5.619   5.815
  838POPC   C1B 4905   4.510   4.589   4.884
  838POPC   C2B 4906   4.470   4.876   5.207
  838POPC   C3B 4907   4.440   5.278   5.466
  838POPC   C4B 4908   4.268   5.426   5.846
  839POPC   NC3 4909   8.928  13.453   4.036
  839POPC   PO4 4910   8.676  13.522   4.329
  839POPC   GL1 4911   8.450  13.503   4.685
  839POPC   GL2 4912   8.212  13.380   4.550
  839POPC   C1A 4913   8.503  13.370   5.127
  839POPC   D2A 4914   8.886  13.266   5.410
  839POPC   C3A 4915   8.875  13.385   5.829
  839POPC   C4A 4916   8.831  13.444   6.263
  839POPC   C1B 4917   7.996  13.328   4.941
  839POPC   C2B 4918   8.008  13.306   5.385
  839POPC   C3B 4919   7.954  13.153   5.785
  839POPC   C4B 4920   7.969  13.004   6.225
  840POPC   NC3 4921  12.291   7.789   3.995
  840POPC   PO4 4922  12.568   7.540   3.973
  840POPC   GL1 4923  12.889   7.630   4.234
  840POPC   GL2 4924  12.620   7.636   4.436
  840POPC   C1A 4925  13.157   7.391   4.453
  840POPC   D2A 4926  13.345   7.083   4.744
  840POPC   C3A 4927  13.334   7.298   5.199
  840POPC   C4A 4928  13.543   7.605   5.418
  840POPC   C1B 4929  12.555   7.892   4.831
  840POPC   C2B 4930  12.532   8.111   5.199
  840POPC   C3B 4931  12.621   8.172   5.641
  840POPC   C4B 4932  12.819   8.277   6.033
  841POPC   NC3 4933   4.871  13.561   4.349
  841POPC   PO4 4934   4.610  13.300   4.238
  841POPC   GL1 4935   4.322  13.255   4.502
  841POPC   GL2 4936   4.404  13.455   4.691
  841POPC   C1A 4937   4.034  13.053   4.761
  841POPC   D2A 4938   3.764  12.716   4.966
  841POPC   C3A 4939   3.891  12.419   5.320
  841POPC   C4A 4940   4.139  12.147   5.593
  841POPC   C1B 4941   4.212  13.693   5.047
  841POPC   C2B 4942   4.040  13.901   5.392
  841POPC   C3B 4943   3.782  14.079   5.763
  841POPC   C4B 4944   3.668  14.131   6.222
  842POPC   NC3 4945   2.784   2.464   3.846
  842POPC   PO4 4946   3.122   2.369   3.694
  842POPC   GL1 4947   3.226   2.200   4.094
  842POPC   GL2 4948   3.502   2.248   4.139
  842POPC   C1A 4949   3.031   2.003   4.503
  842POPC   D2A 4950   2.789   2.011   4.909
  842POPC   C3A 4951   2.422   1.642   4.849
  842POPC   C4A 4952   2.398   1.353   5.156
  842POPC   C1B 4953   3.351   2.404   4.575
  842POPC   C2B 4954   3.190   2.263   5.017
  842POPC   C3B 4955   3.243   2.203   5.504
  842POPC   C4B 4956   3.577   2.050   5.807
  843POPC   NC3 4957   7.605   3.622   4.088
  843POPC   PO4 4958   7.824   3.389   4.337
  843POPC   GL1 4959   7.901   3.197   4.630
  843POPC   GL2 4960   7.977   3.432   4.810
  843POPC   C1A 4961   7.623   2.976   4.909
  843POPC   D2A 4962   7.305   2.937   5.215
  843POPC   C3A 4963   7.480   2.637   5.611
  843POPC   C4A 4964   7.793   2.393   5.799
  843POPC   C1B 4965   7.629   3.369   5.125
  843POPC   C2B 4966   7.310   3.341   5.522
  843POPC   C3B 4967   7.292   3.145   5.846
  843POPC   C4B 4968   7.527   2.804   6.093
  844POPC   NC3 4969  13.486   3.276   4.030
  844POPC   PO4 4970  13.799   3.399   4.289
  844POPC   GL1 4971  13.879   3.384   4.604
  844POPC   GL2 4972  13.908   3.047   4.599
  844POPC   C1A 4973  13.710   3.514   4.970
  844POPC   D2A 4974  13.373   3.745   5.167
  844POPC   C3A 4975  13.318   3.795   5.593
  844POPC   C4A 4976  13.104   3.713   5.966
  844POPC   C1B 4977  14.070   3.164   5.002
  844POPC   C2B 4978  14.237   3.246   5.425
  844POPC   C3B 4979  14.366   3.373   5.860
  844POPC   C4B 4980  14.403   3.726   6.199
  845POPC   NC3 4981   2.305  11.867   3.567
  845POPC   PO4 4982   2.593  11.944   3.795
  845POPC   GL1 4983   2.861  12.108   4.155
  845POPC   GL2 4984   2.679  12.198   4.329
  845POPC   C1A 4985   3.124  11.898   4.435
  845POPC   D2A 4986   3.518  11.981   4.768
  845POPC   C3A 4987   3.486  11.670   5.106
  845POPC   C4A 4988   3.396  11.391   5.479
  845POPC   C1B 4989   2.612  11.776   4.485
  845POPC   C2B 4990   2.427  11.554   4.855
  845POPC   C3B 4991   2.346  11.537   5.354
  845POPC   C4B 4992   2.402  11.552   5.840
  846POPC   NC3 4993   2.186  10.686   3.909
  846POPC   PO4 4994   2.348  10.322   3.767
  846POPC   GL1 4995   2.331  10.297   4.120
  846POPC   GL2 4996   2.550  10.488   4.204
  846POPC   C1A 4997   2.298  10.252   4.609
  846POPC   D2A 4998   2.079  10.429   4.978
  846POPC   C3A 4999   2.176  10.450   5.395
  846POPC   C4A 5000   1.788  10.325   5.598
  846POPC   C1B 5001   2.487  10.687   4.590
  846POPC   C2B 5002   2.716  10.979   4.864
  846POPC   C3B 5003   2.840  11.278   5.216
  846POPC   C4B 5004   2.862  11.571   5.604
  847POPC   NC3 5005   6.519   2.748   4.190
  847POPC   PO4 5006   6.340   3.096   4.184
  847POPC   GL1 5007   6.124   3.332   4.471
  847POPC   GL2 5008   5.961   3.576   4.333
  847POPC   C1A 5009   6.214   3.747   4.733
  847POPC   D2A 5010   6.213   4.108   5.064
  847POPC   C3A 5011   6.309   4.351   5.481
  847POPC   C4A 5012   6.369   4.539   5.878
  847POPC   C1B 5013   5.657   3.565   4.637
  847POPC   C2B 5014   5.252   3.647   4.892
  847POPC   C3B 5015   4.938   3.717   5.212
  847POPC   C4B 5016   4.596   3.737   5.487
  848POPC   NC3 5017   8.498   5.257   4.595
  848POPC   PO4 5018   8.841   5.071   4.442
  848POPC   GL1 5019   8.804   4.708   4.650
  848POPC   GL2 5020   8.571   4.750   4.764
  848POPC   C1A 5021   8.956   4.659   5.079
  848POPC   D2A 5022   8.923   4.799   5.484
  848POPC   C3A 5023   8.751   5.259   5.431
  848POPC   C4A 5024   8.349   5.557   5.445
  848POPC   C1B 5025   8.357   4.792   5.193
  848POPC   C2B 5026   8.419   4.806   5.623
  848POPC   C3B 5027   8.510   4.724   6.086
  848POPC   C4B 5028   8.742   4.712   6.484
  849POPC   NC3 5029   1.929   7.620   3.693
  849POPC   PO4 5030   2.095   7.271   3.767
  849POPC   GL1 5031   2.196   7.420   4.067
  849POPC   GL2 5032   1.980   7.368   4.317
  849POPC   C1A 5033   2.391   7.585   4.462
  849POPC   D2A 5034   2.383   7.722   4.939
  849POPC   C3A 5035   2.614   7.718   5.347
  849POPC   C4A 5036   2.578   7.901   5.813
  849POPC   C1B 5037   2.072   7.353   4.780
  849POPC   C2B 5038   2.098   7.366   5.278
  849POPC   C3B 5039   1.866   7.125   5.637
  849POPC   C4B 5040   1.742   7.279   6.023
  850POPC   NC3 5041   8.409   0.046   4.362
  850POPC   PO4 5042   8.175   0.201   4.147
  850POPC   GL1 5043   7.958   0.134   4.477
  850POPC   GL2 5044   7.710   0.245   4.517
  850POPC   C1A 5045   8.190  -0.083   4.839
  850POPC   D2A 5046   8.224  -0.245   5.225
  850POPC   C3A 5047   8.188  -0.171   5.660
  850POPC   C4A 5048   8.412  -0.403   5.949
  850POPC   C1B 5049   7.490   0.185   4.922
  850POPC   C2B 5050   7.142   0.265   5.232
  850POPC   C3B 5051   6.926   0.138   5.567
  850POPC   C4B 5052   6.620  -0.209   5.691
  851POPC   NC3 5053   1.455   7.680   3.455
  851POPC   PO4 5054   1.546   8.018   3.652
  851POPC   GL1 5055   1.521   8.091   4.096
  851POPC   GL2 5056   1.713   8.240   4.129
  851POPC   C1A 5057   1.635   7.909   4.491
  851POPC   D2A 5058   1.819   7.797   4.920
  851POPC   C3A 5059   1.604   8.031   5.251
  851POPC   C4A 5060   1.256   8.044   5.611
  851POPC   C1B 5061   1.669   8.388   4.578
  851POPC   C2B 5062   1.677   8.627   4.931
  851POPC   C3B 5063   1.705   8.513   5.336
  851POPC   C4B 5064   1.775   8.152   5.694
  852POPC   NC3 5065   7.419  13.753   3.698
  852POPC   PO4 5066   7.219  13.494   3.944
  852POPC   GL1 5067   7.335  13.254   4.307
  852POPC   GL2 5068   7.254  13.005   4.436
  852POPC   C1A 5069   7.247  13.427   4.744
  852POPC   D2A 5070   6.988  13.747   4.990
  852POPC   C3A 5071   7.242  13.753   5.367
  852POPC   C4A 5072   7.184  13.794   5.840
  852POPC   C1B 5073   7.186  12.872   4.895
  852POPC   C2B 5074   7.110  13.006   5.290
  852POPC   C3B 5075   6.935  12.853   5.709
  852POPC   C4B 5076   6.964  12.864   6.188
  853POPC   NC3 5077  11.673   2.295   4.169
  853POPC   PO4 5078  11.311   2.451   4.162
  853POPC   GL1 5079  11.322   2.308   4.568
  853POPC   GL2 5080  11.095   2.189   4.684
  853POPC   C1A 5081  11.598   1.977   4.775
  853POPC   D2A 5082  11.893   1.691   4.990
  853POPC   C3A 5083  12.047   1.769   5.363
  853POPC   C4A 5084  12.016   1.942   5.805
  853POPC   C1B 5085  11.085   2.118   5.101
  853POPC   C2B 5086  11.301   2.301   5.474
  853POPC   C3B 5087  11.463   2.624   5.814
  853POPC   C4B 5088  11.601   2.816   6.242
  854POPC   NC3 5089   4.108  10.314   3.497
  854POPC   PO4 5090   4.184   9.895   3.539
  854POPC   GL1 5091   4.130   9.863   3.894
  854POPC   GL2 5092   3.838   9.677   3.831
  854POPC   C1A 5093   3.971   9.772   4.357
  854POPC   D2A 5094   4.008   9.708   4.855
  854POPC   C3A 5095   4.256   9.767   5.223
  854POPC   C4A 5096   4.271  10.018   5.595
  854POPC   C1B 5097   3.528   9.542   4.139
  854POPC   C2B 5098   3.545   9.644   4.582
  854POPC   C3B 5099   3.444   9.657   5.019
  854POPC   C4B 5100   3.717   9.900   5.269
  855POPC   NC3 5101   6.845   1.494   4.392
  855POPC   PO4 5102   6.904   1.877   4.460
  855POPC   GL1 5103   6.867   1.798   4.815
  855POPC   GL2 5104   6.660   1.648   4.841
  855POPC   C1A 5105   6.669   1.902   5.222
  855POPC   D2A 5106   6.496   1.907   5.639
  855POPC   C3A 5107   6.595   1.621   5.978
  855POPC   C4A 5108   6.430   1.499   6.424
  855POPC   C1B 5109   6.307   1.571   5.173
  855POPC   C2B 5110   6.228   1.510   5.580
  855POPC   C3B 5111   5.931   1.513   5.929
  855POPC   C4B 5112   5.473   1.698   5.942
  856POPC   NC3 5113   6.439   0.101   3.985
  856POPC   PO4 5114   6.198   0.387   3.785
  856POPC   GL1 5115   6.293   0.475   4.198
  856POPC   GL2 5116   6.176   0.776   4.309
  856POPC   C1A 5117   6.185   0.395   4.660
  856POPC   D2A 5118   6.140   0.173   5.073
  856POPC   C3A 5119   6.008   0.404   5.468
  856POPC   C4A 5120   5.783   0.252   5.863
  856POPC   C1B 5121   5.785   0.591   4.491
  856POPC   C2B 5122   5.774   0.189   4.701
  856POPC   C3B 5123   5.534  -0.197   4.877
  856POPC   C4B 5124   5.439  -0.426   5.278
  857POPC   NC3 5125  13.353   8.800   4.303
  857POPC   PO4 5126  13.358   8.469   4.190
  857POPC   GL1 5127  13.611   8.421   4.399
  857POPC   GL2 5128  13.859   8.528   4.348
  857POPC   C1A 5129  13.864   8.087   4.577
  857POPC   D2A 5130  13.783   7.904   4.956
  857POPC   C3A 5131  13.779   8.009   5.418
  857POPC   C4A 5132  13.715   8.283   5.762
  857POPC   C1B 5133  13.846   8.756   4.752
  857POPC   C2B 5134  14.141   8.945   5.137
  857POPC   C3B 5135  14.214   8.907   5.598
  857POPC   C4B 5136  14.268   9.285   5.828
  858POPC   NC3 5137   2.290   9.147   3.635
  858POPC   PO4 5138   2.314   8.876   3.936
  858POPC   GL1 5139   2.476   9.148   4.136
  858POPC   GL2 5140   2.548   8.987   4.389
  858POPC   C1A 5141   2.295   9.425   4.497
  858POPC   D2A 5142   2.037   9.505   4.888
  858POPC   C3A 5143   1.966   9.529   5.344
  858POPC   C4A 5144   1.996   9.396   5.810
  858POPC   C1B 5145   2.566   9.175   4.813
  858POPC   C2B 5146   2.426   9.370   5.180
  858POPC   C3B 5147   2.502   9.332   5.640
  858POPC   C4B 5148   2.596   9.222   6.130
  859POPC   NC3 5149   6.207   4.297   3.738
  859POPC   PO4 5150   6.266   4.684   3.827
  859POPC   GL1 5151   6.310   4.885   4.195
  859POPC   GL2 5152   6.108   5.138   4.154
  859POPC   C1A 5153   6.386   5.057   4.656
  859POPC   D2A 5154   6.468   5.262   5.092
  859POPC   C3A 5155   6.475   4.926   5.426
  859POPC   C4A 5156   6.062   4.763   5.577
  859POPC   C1B 5157   5.864   5.316   4.437
  859POPC   C2B 5158   5.637   5.398   4.867
  859POPC   C3B 5159   5.458   5.277   5.312
  859POPC   C4B 5160   5.470   5.325   5.760
  860POPC   NC3 5161   3.655   5.236   3.816
  860POPC   PO4 5162   3.905   5.550   3.809
  860POPC   GL1 5163   3.915   5.559   4.224
  860POPC   GL2 5164   3.676   5.491   4.256
  860POPC   C1A 5165   4.241   5.453   4.555
  860POPC   D2A 5166   4.489   5.466   4.960
  860POPC   C3A 5167   4.296   5.793   5.300
  860POPC   C4A 5168   4.254   5.987   5.710
  860POPC   C1B 5169   3.555   5.567   4.690
  860POPC   C2B 5170   3.633   5.331   5.035
  860POPC   C3B 5171   3.586   5.171   5.475
  860POPC   C4B 5172   3.276   5.234   5.799
  861POPC   NC3 5173   4.212  13.645   4.287
  861POPC   PO4 5174   4.504  13.879   4.253
  861POPC   GL1 5175   4.306  13.925   4.587
  861POPC   GL2 5176   4.550  13.938   4.763
  861POPC   C1A 5177   4.156  14.243   4.821
  861POPC   D2A 5178   4.333  14.348   5.213
  861POPC   C3A 5179   4.235  14.510   5.604
  861POPC   C4A 5180   4.317  14.921   5.748
  861POPC   C1B 5181   4.684  13.850   5.190
  861POPC   C2B 5182   4.938  13.571   5.492
  861POPC   C3B 5183   5.316  13.677   5.774
  861POPC   C4B 5184   5.742  13.752   5.661
  862POPC   NC3 5185   3.298   3.260   3.449
  862POPC   PO4 5186   3.113   3.108   3.714
  862POPC   GL1 5187   3.153   2.751   3.883
  862POPC   GL2 5188   3.332   2.742   4.108
  862POPC   C1A 5189   2.904   2.793   4.307
  862POPC   D2A 5190   2.826   2.444   4.625
  862POPC   C3A 5191   2.778   2.587   5.069
  862POPC   C4A 5192   2.564   2.527   5.406
  862POPC   C1B 5193   3.379   2.922   4.521
  862POPC   C2B 5194   3.194   2.834   4.918
  862POPC   C3B 5195   3.253   2.669   5.342
  862POPC   C4B 5196   3.245   2.953   5.791
  863POPC   NC3 5197   3.416   7.536   3.844
  863POPC   PO4 5198   3.271   7.832   3.964
  863POPC   GL1 5199   3.301   7.678   4.250
  863POPC   GL2 5200   3.582   7.798   4.349
  863POPC   C1A 5201   2.944   7.393   4.387
  863POPC   D2A 5202   2.868   7.042   4.642
  863POPC   C3A 5203   2.590   7.225   4.985
  863POPC   C4A 5204   2.426   7.065   5.345
  863POPC   C1B 5205   3.682   7.849   4.806
  863POPC   C2B 5206   3.869   7.852   5.228
  863POPC   C3B 5207   3.888   7.532   5.589
  863POPC   C4B 5208   4.204   7.385   5.856
  864POPC   NC3 5209  13.022   9.041   4.628
  864POPC   PO4 5210  13.405   9.297   4.615
  864POPC   GL1 5211  13.218   9.313   4.943
  864POPC   GL2 5212  12.976   9.444   4.954
  864POPC   C1A 5213  13.140   9.209   5.399
  864POPC   D2A 5214  13.181   9.170   5.818
  864POPC   C3A 5215  13.392   9.480   6.116
  864POPC   C4A 5216  13.663   9.675   6.483
  864POPC   C1B 5217  13.015   9.735   5.312
  864POPC   C2B 5218  12.921  10.060   5.638
  864POPC   C3B 5219  12.883  10.417   5.922
  864POPC   C4B 5220  12.830  10.843   5.989
  865POPC   NC3 5221  13.391   9.754   4.428
  865POPC   PO4 5222  13.194   9.823   4.066
  865POPC   GL1 5223  13.101  10.147   4.368
  865POPC   GL2 5224  12.906  10.022   4.483
  865POPC   C1A 5225  13.255  10.483   4.662
  865POPC   D2A 5226  13.502  10.469   5.010
  865POPC   C3A 5227  13.710  10.478   5.389
  865POPC   C4A 5228  13.871  10.518   5.822
  865POPC   C1B 5229  13.173   9.969   4.860
  865POPC   C2B 5230  13.374  10.115   5.309
  865POPC   C3B 5231  13.491  10.089   5.776
  865POPC   C4B 5232  13.477  10.104   6.251
  866POPC   NC3 5233   9.582  11.735   4.084
  866POPC   PO4 5234   9.800  11.876   4.388
  866POPC   GL1 5235   9.387  11.880   4.519
  866POPC   GL2 5236   9.433  11.991   4.752
  866POPC   C1A 5237   8.932  11.711   4.458
  866POPC   D2A 5238   8.643  11.517   4.761
  866POPC   C3A 5239   8.719  11.683   5.197
  866POPC   C4A 5240   8.660  11.783   5.646
  866POPC   C1B 5241   9.264  12.023   5.187
  866POPC   C2B 5242   9.141  11.926   5.678
  866POPC   C3B 5243   8.944  11.944   6.093
  866POPC   C4B 5244   8.688  12.038   6.491
  867POPC   NC3 5245   6.386  12.044   4.325
  867POPC   PO4 5246   6.456  12.266   3.998
  867POPC   GL1 5247   6.821  12.273   4.206
  867POPC   GL2 5248   7.049  12.506   4.179
  867POPC   C1A 5249   6.897  12.147   4.645
  867POPC   D2A 5250   7.027  12.428   5.043
  867POPC   C3A 5251   6.837  12.390   5.438
  867POPC   C4A 5252   6.682  12.459   5.883
  867POPC   C1B 5253   6.879  12.640   4.554
  867POPC   C2B 5254   6.585  12.491   4.887
  867POPC   C3B 5255   6.348  12.299   5.249
  867POPC   C4B 5256   6.341  11.804   5.366
  868POPC   NC3 5257   5.511   5.124   4.122
  868POPC   PO4 5258   5.415   4.800   3.925
  868POPC   GL1 5259   5.310   4.583   4.202
  868POPC   GL2 5260   5.149   4.461   4.352
  868POPC   C1A 5261   5.597   4.565   4.568
  868POPC   D2A 5262   5.852   4.530   4.975
  868POPC   C3A 5263   6.276   4.610   5.067
  868POPC   C4A 5264   6.643   4.441   5.053
  868POPC   C1B 5265   5.061   4.597   4.816
  868POPC   C2B 5266   5.049   4.603   5.255
  868POPC   C3B 5267   4.783   4.676   5.642
  868POPC   C4B 5268   4.501   4.946   5.882
  869POPC   NC3 5269   4.258   4.631   3.944
  869POPC   PO4 5270   3.904   4.593   3.905
  869POPC   GL1 5271   3.974   4.560   4.276
  869POPC   GL2 5272   3.839   4.706   4.383
  869POPC   C1A 5273   3.781   4.237   4.528
  869POPC   D2A 5274   3.539   4.151   4.890
  869POPC   C3A 5275   3.711   3.895   5.212
  869POPC   C4A 5276   3.885   4.153   5.571
  869POPC   C1B 5277   3.591   5.077   4.555
  869POPC   C2B 5278   3.252   5.133   4.821
  869POPC   C3B 5279   3.181   5.273   5.222
  869POPC   C4B 5280   2.941   5.519   5.521
  870POPC   NC3 5281  13.744   3.601   3.822
  870POPC   PO4 5282  13.672   3.892   4.078
  870POPC   GL1 5283  13.994   4.076   4.286
  870POPC   GL2 5284  13.758   4.211   4.453
  870POPC   C1A 5285  14.217   4.196   4.626
  870POPC   D2A 5286  14.542   4.426   4.906
  870POPC   C3A 5287  14.974   4.531   5.022
  870POPC   C4A 5288  15.228   4.380   5.399
  870POPC   C1B 5289  13.479   4.387   4.847
  870POPC   C2B 5290  13.531   4.750   5.194
  870POPC   C3B 5291  13.815   4.643   5.540
  870POPC   C4B 5292  14.119   4.301   5.631
  871POPC   NC3 5293   1.225  13.692   3.967
  871POPC   PO4 5294   1.043  13.938   3.835
  871POPC   GL1 5295   0.889  13.859   4.242
  871POPC   GL2 5296   0.669  13.770   4.272
  871POPC   C1A 5297   0.723  13.974   4.678
  871POPC   D2A 5298   0.648  13.991   5.102
  871POPC   C3A 5299   0.771  13.688   5.453
  871POPC   C4A 5300   0.552  13.491   5.810
  871POPC   C1B 5301   0.624  13.446   4.603
  871POPC   C2B 5302   0.888  13.240   4.970
  871POPC   C3B 5303   1.171  13.117   5.345
  871POPC   C4B 5304   1.160  13.405   5.698
  872POPC   NC3 5305  12.669   5.582   4.162
  872POPC   PO4 5306  12.948   5.617   3.868
  872POPC   GL1 5307  12.962   5.869   4.285
  872POPC   GL2 5308  12.967   6.197   4.253
  872POPC   C1A 5309  12.898   5.951   4.744
  872POPC   D2A 5310  12.808   5.940   5.242
  872POPC   C3A 5311  12.416   6.012   5.528
  872POPC   C4A 5312  12.068   6.019   5.806
  872POPC   C1B 5313  13.081   6.440   4.658
  872POPC   C2B 5314  13.003   6.395   5.078
  872POPC   C3B 5315  13.279   6.190   5.370
  872POPC   C4B 5316  13.495   6.107   5.791
  873POPC   NC3 5317   0.155  10.673   3.531
  873POPC   PO4 5318   0.394  10.433   3.744
  873POPC   GL1 5319   0.412  10.570   4.181
  873POPC   GL2 5320   0.732  10.598   4.178
  873POPC   C1A 5321   0.481  10.882   4.542
  873POPC   D2A 5322   0.516  10.939   5.004
  873POPC   C3A 5323   0.758  10.861   5.356
  873POPC   C4A 5324   1.037  10.994   5.723
  873POPC   C1B 5325   0.805  10.511   4.653
  873POPC   C2B 5326   0.888  10.355   5.088
  873POPC   C3B 5327   0.814  10.419   5.530
  873POPC   C4B 5328   0.881  10.432   5.979
  874POPC   NC3 5329  10.821   9.117   4.522
  874POPC   PO4 5330  10.868   9.509   4.573
  874POPC   GL1 5331  10.966   9.432   4.910
  874POPC   GL2 5332  11.199   9.582   4.983
  874POPC   C1A 5333  10.742   9.396   5.351
  874POPC   D2A 5334  10.701   9.241   5.807
  874POPC   C3A 5335  10.432   8.998   6.159
  874POPC   C4A 5336  10.058   8.795   6.373
  874POPC   C1B 5337  11.207   9.182   5.173
  874POPC   C2B 5338  10.895   8.956   5.464
  874POPC   C3B 5339  10.434   8.764   5.473
  874POPC   C4B 5340  10.071   8.556   5.399
  875POPC   NC3 5341  11.047  12.187   4.152
  875POPC   PO4 5342  11.215  12.496   4.347
  875POPC   GL1 5343  11.193  12.308   4.692
  875POPC   GL2 5344  10.930  12.340   4.775
  875POPC   C1A 5345  11.413  12.328   5.111
  875POPC   D2A 5346  11.435  12.138   5.567
  875POPC   C3A 5347  11.426  12.274   6.035
  875POPC   C4A 5348  11.567  12.267   6.472
  875POPC   C1B 5349  10.801  12.388   5.244
  875POPC   C2B 5350  10.907  12.358   5.676
  875POPC   C3B 5351  10.908  12.218   6.123
  875POPC   C4B 5352  10.935  11.852   6.369
  876POPC   NC3 5353  10.057  12.886   4.271
  876POPC   PO4 5354   9.933  13.253   4.318
  876POPC   GL1 5355   9.691  13.269   4.662
  876POPC   GL2 5356   9.523  13.484   4.828
  876POPC   C1A 5357   9.992  13.427   5.052
  876POPC   D2A 5358  10.108  13.553   5.511
  876POPC   C3A 5359  10.110  13.894   5.849
  876POPC   C4A 5360   9.766  14.011   6.090
  876POPC   C1B 5361   9.558  13.445   5.308
  876POPC   C2B 5362   9.379  13.280   5.708
  876POPC   C3B 5363   9.541  13.054   5.998
  876POPC   C4B 5364   9.854  12.980   6.335
  877POPC   NC3 5365  11.390  12.985   4.240
  877POPC   PO4 5366  11.206  13.363   4.176
  877POPC   GL1 5367  10.959  13.358   4.395
  877POPC   GL2 5368  10.937  13.079   4.516
  877POPC   C1A 5369  11.031  13.575   4.800
  877POPC   D2A 5370  10.978  13.934   5.101
  877POPC   C3A 5371  11.019  13.911   5.542
  877POPC   C4A 5372  11.105  13.942   5.994
  877POPC   C1B 5373  10.792  12.929   4.913
  877POPC   C2B 5374  10.830  13.051   5.412
  877POPC   C3B 5375  10.921  13.038   5.800
  877POPC   C4B 5376  10.817  13.089   6.227
  878POPC   NC3 5377   5.887   1.783   4.190
  878POPC   PO4 5378   5.602   1.537   4.067
  878POPC   GL1 5379   5.301   1.423   4.337
  878POPC   GL2 5380   5.038   1.554   4.283
  878POPC   C1A 5381   5.232   1.277   4.751
  878POPC   D2A 5382   5.015   1.136   5.155
  878POPC   C3A 5383   5.242   1.391   5.438
  878POPC   C4A 5384   5.511   1.760   5.478
  878POPC   C1B 5385   4.915   1.864   4.657
  878POPC   C2B 5386   4.882   2.162   4.973
  878POPC   C3B 5387   4.734   2.184   5.428
  878POPC   C4B 5388   4.621   2.085   5.858
  879POPC   NC3 5389  12.339  12.784   4.131
  879POPC   PO4 5390  12.518  12.445   4.229
  879POPC   GL1 5391  12.517  12.585   4.577
  879POPC   GL2 5392  12.267  12.551   4.627
  879POPC   C1A 5393  12.374  12.983   4.784
  879POPC   D2A 5394  12.002  13.200   4.924
  879POPC   C3A 5395  11.833  13.048   5.301
  879POPC   C4A 5396  11.586  13.067   5.677
  879POPC   C1B 5397  12.322  12.591   5.115
  879POPC   C2B 5398  12.267  12.768   5.505
  879POPC   C3B 5399  12.135  12.909   5.940
  879POPC   C4B 5400  11.964  13.012   6.380
  880POPC   NC3 5401   9.335  10.974   4.361
  880POPC   PO4 5402   9.737  10.877   4.392
  880POPC   GL1 5403   9.798  10.956   4.760
  880POPC   GL2 5404   9.594  11.086   4.849
  880POPC   C1A 5405  10.072  10.896   5.145
  880POPC   D2A 5406  10.087  11.146   5.506
  880POPC   C3A 5407   9.950  11.292   5.874
  880POPC   C4A 5408   9.827  11.611   6.197
  880POPC   C1B 5409   9.567  11.141   5.287
  880POPC   C2B 5410   9.532  11.067   5.716
  880POPC   C3B 5411   9.528  11.148   6.209
  880POPC   C4B 5412   9.366  11.176   6.607
  881POPC   NC3 5413   5.071   5.794   3.896
  881POPC   PO4 5414   5.135   6.218   3.896
  881POPC   GL1 5415   5.182   6.221   4.224
  881POPC   GL2 5416   5.384   6.310   4.377
  881POPC   C1A 5417   4.973   6.063   4.608
  881POPC   D2A 5418   4.628   6.085   4.900
  881POPC   C3A 5419   4.756   6.020   5.351
  881POPC   C4A 5420   4.799   5.985   5.785
  881POPC   C1B 5421   5.514   6.476   4.772
  881POPC   C2B 5422   5.453   6.578   5.248
  881POPC   C3B 5423   5.340   6.801   5.619
  881POPC   C4B 5424   5.160   7.010   6.064
  882POPC   NC3 5425  10.171   2.811   4.212
  882POPC   PO4 5426  10.428   2.915   4.481
  882POPC   GL1 5427  10.507   3.113   4.818
  882POPC   GL2 5428  10.580   2.956   5.066
  882POPC   C1A 5429  10.921   3.281   4.891
  882POPC   D2A 5430  11.077   3.460   5.302
  882POPC   C3A 5431  10.973   3.898   5.481
  882POPC   C4A 5432  11.249   4.188   5.804
  882POPC   C1B 5433  10.703   3.074   5.488
  882POPC   C2B 5434  10.934   3.374   5.751
  882POPC   C3B 5435  11.075   3.756   5.940
  882POPC   C4B 5436  10.905   4.097   6.258
  883POPC   NC3 5437   0.664   6.193   3.680
  883POPC   PO4 5438   0.580   6.604   3.663
  883POPC   GL1 5439   0.737   6.561   4.051
  883POPC   GL2 5440   0.524   6.787   4.219
  883POPC   C1A 5441   0.882   6.454   4.489
  883POPC   D2A 5442   0.972   6.262   4.923
  883POPC   C3A 5443   0.727   5.908   5.046
  883POPC   C4A 5444   0.442   5.596   4.877
  883POPC   C1B 5445   0.394   6.520   4.595
  883POPC   C2B 5446   0.053   6.616   4.854
  883POPC   C3B 5447  -0.027   6.619   5.328
  883POPC   C4B 5448  -0.093   6.389   5.739
  884POPC   NC3 5449   5.867   8.713   4.494
  884POPC   PO4 5450   5.507   8.917   4.456
  884POPC   GL1 5451   5.414   8.680   4.776
  884POPC   GL2 5452   5.594   8.510   4.902
  884POPC   C1A 5453   5.139   8.684   5.110
  884POPC   D2A 5454   5.046   8.877   5.473
  884POPC   C3A 5455   4.921   8.622   5.827
  884POPC   C4A 5456   4.702   8.703   6.186
  884POPC   C1B 5457   5.609   8.684   5.321
  884POPC   C2B 5458   5.597   8.872   5.757
  884POPC   C3B 5459   5.570   9.183   6.063
  884POPC   C4B 5460   5.358   9.276   6.467
  885POPC   NC3 5461  13.146   8.072   3.916
  885POPC   PO4 5462  12.795   8.065   4.042
  885POPC   GL1 5463  13.100   8.085   4.434
  885POPC   GL2 5464  13.246   7.849   4.448
  885POPC   C1A 5465  13.008   8.109   4.920
  885POPC   D2A 5466  13.303   8.118   5.296
  885POPC   C3A 5467  13.140   7.882   5.589
  885POPC   C4A 5468  12.785   7.574   5.655
  885POPC   C1B 5469  13.385   7.630   4.821
  885POPC   C2B 5470  13.761   7.367   4.897
  885POPC   C3B 5471  14.065   7.110   5.121
  885POPC   C4B 5472  14.356   6.943   5.440
  886POPC   NC3 5473  11.708   7.550   3.752
  886POPC   PO4 5474  11.800   7.713   4.137
  886POPC   GL1 5475  11.705   7.810   4.481
  886POPC   GL2 5476  11.841   7.597   4.694
  886POPC   C1A 5477  11.511   7.917   4.880
  886POPC   D2A 5478  11.385   7.955   5.309
  886POPC   C3A 5479  11.120   8.024   5.684
  886POPC   C4A 5480  10.918   7.788   6.047
  886POPC   C1B 5481  12.196   7.515   4.913
  886POPC   C2B 5482  12.450   7.644   5.289
  886POPC   C3B 5483  12.287   7.804   5.726
  886POPC   C4B 5484  12.353   8.042   6.113
  887POPC   NC3 5485   4.779   3.864   3.850
  887POPC   PO4 5486   5.083   3.558   3.884
  887POPC   GL1 5487   5.058   3.637   4.324
  887POPC   GL2 5488   5.052   3.866   4.362
  887POPC   C1A 5489   4.888   3.353   4.614
  887POPC   D2A 5490   4.723   3.120   4.963
  887POPC   C3A 5491   4.772   3.210   5.367
  887POPC   C4A 5492   4.625   3.303   5.811
  887POPC   C1B 5493   5.323   4.073   4.648
  887POPC   C2B 5494   5.327   4.185   5.143
  887POPC   C3B 5495   5.311   4.351   5.588
  887POPC   C4B 5496   5.127   4.553   5.979
  888POPC   NC3 5497   1.308   1.011   3.743
  888POPC   PO4 5498   1.104   1.356   3.679
  888POPC   GL1 5499   1.127   1.365   4.069
  888POPC   GL2 5500   0.884   1.221   4.109
  888POPC   C1A 5501   1.261   1.266   4.481
  888POPC   D2A 5502   1.466   1.279   4.913
  888POPC   C3A 5503   1.443   1.232   5.353
  888POPC   C4A 5504   1.327   1.270   5.807
  888POPC   C1B 5505   0.730   1.231   4.561
  888POPC   C2B 5506   0.630   1.600   4.890
  888POPC   C3B 5507   0.411   1.864   5.199
  888POPC   C4B 5508  -0.033   2.049   5.068
  889POPC   NC3 5509   3.091   4.602   3.783
  889POPC   PO4 5510   3.261   4.927   3.638
  889POPC   GL1 5511   3.274   5.045   4.061
  889POPC   GL2 5512   3.435   4.814   4.124
  889POPC   C1A 5513   3.223   5.402   4.366
  889POPC   D2A 5514   3.194   5.841   4.577
  889POPC   C3A 5515   3.207   5.771   5.036
  889POPC   C4A 5516   3.404   5.668   5.413
  889POPC   C1B 5517   3.095   4.866   4.408
  889POPC   C2B 5518   2.798   5.038   4.713
  889POPC   C3B 5519   2.742   5.025   5.167
  889POPC   C4B 5520   2.857   5.032   5.605
  890POPC   NC3 5521  12.291   0.412   3.603
  890POPC   PO4 5522  12.169   0.712   3.838
  890POPC   GL1 5523  12.254   0.632   4.200
  890POPC   GL2 5524  11.980   0.604   4.321
  890POPC   C1A 5525  12.480   0.482   4.546
  890POPC   D2A 5526  12.401   0.075   4.810
  890POPC   C3A 5527  12.431   0.040   5.258
  890POPC   C4A 5528  12.434  -0.308   5.552
  890POPC   C1B 5529  11.952   0.293   4.730
  890POPC   C2B 5530  11.989   0.156   5.130
  890POPC   C3B 5531  11.971   0.091   5.544
  890POPC   C4B 5532  12.295   0.118   5.874
  891POPC   NC3 5533  10.373  11.749   4.364
  891POPC   PO4 5534  10.643  12.019   4.452
  891POPC   GL1 5535  10.772  11.835   4.809
  891POPC   GL2 5536  11.112  11.808   4.803
  891POPC   C1A 5537  10.506  11.977   5.114
  891POPC   D2A 5538  10.458  12.122   5.540
  891POPC   C3A 5539  10.111  12.395   5.687
  891POPC   C4A 5540   9.753  12.682   5.813
  891POPC   C1B 5541  10.999  11.964   5.216
  891POPC   C2B 5542  10.870  11.906   5.599
  891POPC   C3B 5543  11.208  11.848   5.903
  891POPC   C4B 5544  11.479  11.815   6.258
  892POPC   NC3 5545   5.007   2.777   3.893
  892POPC   PO4 5546   4.882   2.402   3.853
  892POPC   GL1 5547   4.737   2.468   4.256
  892POPC   GL2 5548   4.719   2.282   4.492
  892POPC   C1A 5549   4.556   2.819   4.365
  892POPC   D2A 5550   4.390   3.242   4.596
  892POPC   C3A 5551   3.918   3.159   4.516
  892POPC   C4A 5552   3.471   3.366   4.320
  892POPC   C1B 5553   4.321   2.304   4.749
  892POPC   C2B 5554   4.067   2.427   5.144
  892POPC   C3B 5555   3.845   2.755   5.360
  892POPC   C4B 5556   3.583   3.109   5.397
  893POPC   NC3 5557   5.605   0.135   4.109
  893POPC   PO4 5558   5.244   0.130   3.946
  893POPC   GL1 5559   4.994   0.059   4.267
  893POPC   GL2 5560   5.256  -0.071   4.450
  893POPC   C1A 5561   4.869   0.343   4.557
  893POPC   D2A 5562   4.769   0.391   4.997
  893POPC   C3A 5563   4.748   0.318   5.451
  893POPC   C4A 5564   4.884   0.017   5.779
  893POPC   C1B 5565   5.056  -0.016   4.858
  893POPC   C2B 5566   5.120   0.019   5.330
  893POPC   C3B 5567   5.334   0.275   5.628
  893POPC   C4B 5568   5.316   0.542   6.015
  894POPC   NC3 5569   0.395   0.384   3.467
  894POPC   PO4 5570   0.263   0.634   3.689
  894POPC   GL1 5571   0.287   0.481   4.064
  894POPC   GL2 5572   0.045   0.571   4.272
  894POPC   C1A 5573   0.526   0.539   4.453
  894POPC   D2A 5574   0.679   0.551   4.892
  894POPC   C3A 5575   0.358   0.372   5.244
  894POPC   C4A 5576   0.274  -0.059   5.352
  894POPC   C1B 5577   0.055   0.536   4.744
  894POPC   C2B 5578  -0.059   0.177   4.981
  894POPC   C3B 5579  -0.227   0.054   5.457
  894POPC   C4B 5580  -0.186   0.081   5.911
  895POPC   NC3 5581  11.024   8.350   4.151
  895POPC   PO4 5582  11.050   8.700   4.304
  895POPC   GL1 5583  11.257   8.625   4.566
  895POPC   GL2 5584  11.339   8.328   4.571
  895POPC   C1A 5585  11.256   8.692   5.026
  895POPC   D2A 5586  11.327   8.434   5.377
  895POPC   C3A 5587  11.693   8.276   5.506
  895POPC   C4A 5588  12.104   8.177   5.452
  895POPC   C1B 5589  11.174   8.236   4.967
  895POPC   C2B 5590  10.860   8.017   5.216
  895POPC   C3B 5591  10.659   7.679   5.495
  895POPC   C4B 5592  10.638   7.344   5.897
  896POPC   NC3 5593   6.978  13.860   4.509
  896POPC   PO4 5594   6.671  14.110   4.374
  896POPC   GL1 5595   6.530  13.976   4.762
  896POPC   GL2 5596   6.660  14.187   4.884
  896POPC   C1A 5597   6.438  13.608   5.097
  896POPC   D2A 5598   6.651  13.301   5.375
  896POPC   C3A 5599   7.019  13.348   5.673
  896POPC   C4A 5600   7.429  13.147   5.694
  896POPC   C1B 5601   6.523  14.194   5.317
  896POPC   C2B 5602   6.458  14.256   5.744
  896POPC   C3B 5603   6.665  14.013   6.104
  896POPC   C4B 5604   6.981  13.847   6.391
  897POPC   NC3 5605  13.095   6.113   3.789
  897POPC   PO4 5606  13.126   6.494   3.825
  897POPC   GL1 5607  13.265   6.519   4.100
  897POPC   GL2 5608  13.488   6.377   4.214
  897POPC   C1A 5609  13.035   6.834   4.336
  897POPC   D2A 5610  12.676   7.106   4.413
  897POPC   C3A 5611  12.870   7.294   4.817
  897POPC   C4A 5612  12.915   7.640   5.130
  897POPC   C1B 5613  13.490   6.667   4.537
  897POPC   C2B 5614  13.519   6.704   5.010
  897POPC   C3B 5615  13.439   6.653   5.451
  897POPC   C4B 5616  13.151   6.542   5.773
  898POPC   NC3 5617  10.081  10.190   4.584
  898POPC   PO4 5618   9.845  10.477   4.664
  898POPC   GL1 5619   9.792  10.537   5.020
  898POPC   GL2 5620   9.983  10.378   5.154
  898POPC   C1A 5621   9.765  10.702   5.486
  898POPC   D2A 5622   9.429  10.520   5.767
  898POPC   C3A 5623   8.925  10.553   5.648
  898POPC   C4A 5624   8.584  10.870   5.574
  898POPC   C1B 5625   9.889  10.208   5.554
  898POPC   C2B 5626  10.234  10.095   5.877
  898POPC   C3B 5627  10.593   9.991   6.107
  898POPC   C4B 5628  10.880   9.624   6.192
  899POPC   NC3 5629   4.052  12.126   3.961
  899POPC   PO4 5630   3.984  11.787   4.036
  899POPC   GL1 5631   3.997  11.598   4.413
  899POPC   GL2 5632   3.757  11.617   4.518
  899POPC   C1A 5633   4.082  11.147   4.549
  899POPC   D2A 5634   3.751  10.926   4.832
  899POPC   C3A 5635   3.651  10.855   5.311
  899POPC   C4A 5636   3.728  10.673   5.785
  899POPC   C1B 5637   3.933  11.497   4.873
  899POPC   C2B 5638   3.834  11.302   5.266
  899POPC   C3B 5639   3.788  11.179   5.729
  899POPC   C4B 5640   3.611  11.002   6.126
  900POPC   NC3 5641   8.914   9.281   3.593
  900POPC   PO4 5642   8.697   9.369   3.889
  900POPC   GL1 5643   8.556   9.184   4.315
  900POPC   GL2 5644   8.647   9.380   4.468
  900POPC   C1A 5645   8.142   9.120   4.516
  900POPC   D2A 5646   8.050   8.696   4.713
  900POPC   C3A 5647   7.987   8.586   5.142
  900POPC   C4A 5648   7.995   8.419   5.548
  900POPC   C1B 5649   8.678   9.384   4.900
  900POPC   C2B 5650   8.870   9.619   5.224
  900POPC   C3B 5651   9.109   9.589   5.660
  900POPC   C4B 5652   9.073   9.520   6.078
  901POPC   NC3 5653   9.299  12.341   4.398
  901POPC   PO4 5654   8.935  12.509   4.328
  901POPC   GL1 5655   8.672  12.450   4.579
  901POPC   GL2 5656   8.615  12.172   4.495
  901POPC   C1A 5657   8.515  12.464   5.030
  901POPC   D2A 5658   8.272  12.380   5.402
  901POPC   C3A 5659   8.230  12.168   5.803
  901POPC   C4A 5660   8.385  11.795   6.086
  901POPC   C1B 5661   8.709  12.029   4.909
  901POPC   C2B 5662   8.759  12.172   5.337
  901POPC   C3B 5663   8.692  12.280   5.766
  901POPC   C4B 5664   8.792  12.563   6.134
  902POPC   NC3 5665   6.409   9.228   4.178
  902POPC   PO4 5666   6.327   8.896   4.292
  902POPC   GL1 5667   6.365   8.878   4.741
  902POPC   GL2 5668   6.435   9.162   4.759
  902POPC   C1A 5669   6.011   8.760   5.008
  902POPC   D2A 5670   6.085   8.302   5.124
  902POPC   C3A 5671   6.362   8.159   5.494
  902POPC   C4A 5672   6.629   8.367   5.806
  902POPC   C1B 5673   6.331   9.289   5.148
  902POPC   C2B 5674   6.437   9.653   5.460
  902POPC   C3B 5675   6.508   9.770   5.880
  902POPC   C4B 5676   6.413   9.860   6.343
  903POPC   NC3 5677  12.643   8.290   4.431
  903POPC   PO4 5678  12.591   8.674   4.570
  903POPC   GL1 5679  12.583   8.455   4.866
  903POPC   GL2 5680  12.271   8.413   4.901
  903POPC   C1A 5681  12.457   8.670   5.256
  903POPC   D2A 5682  12.556   8.659   5.717
  903POPC   C3A 5683  12.802   8.866   6.104
  903POPC   C4A 5684  12.699   9.277   6.206
  903POPC   C1B 5685  12.030   8.009   4.997
  903POPC   C2B 5686  11.816   7.670   5.275
  903POPC   C3B 5687  11.538   7.319   5.483
  903POPC   C4B 5688  11.739   6.929   5.649
  904POPC   NC3 5689  10.711   1.332   3.903
  904POPC   PO4 5690  10.578   1.292   4.289
  904POPC   GL1 5691  10.790   1.173   4.681
  904POPC   GL2 5692  10.767   0.818   4.629
  904POPC   C1A 5693  11.036   1.353   5.038
  904POPC   D2A 5694  11.219   1.344   5.510
  904POPC   C3A 5695  10.913   1.444   5.883
  904POPC   C4A 5696  10.751   1.244   6.248
  904POPC   C1B 5697  10.893   0.873   5.079
  904POPC   C2B 5698  11.203   0.853   5.420
  904POPC   C3B 5699  11.645   0.857   5.532
  904POPC   C4B 5700  12.027   0.700   5.668
  905POPC   NC3 5701   3.977   4.099   4.093
  905POPC   PO4 5702   4.369   4.094   4.093
  905POPC   GL1 5703   4.622   4.003   4.376
  905POPC   GL2 5704   4.746   4.204   4.593
  905POPC   C1A 5705   4.631   3.756   4.781
  905POPC   D2A 5706   4.411   3.472   5.074
  905POPC   C3A 5707   4.109   3.668   5.446
  905POPC   C4A 5708   3.701   3.606   5.606
  905POPC   C1B 5709   4.888   4.186   4.996
  905POPC   C2B 5710   4.861   4.167   5.495
  905POPC   C3B 5711   4.984   3.883   5.816
  905POPC   C4B 5712   5.189   3.446   5.856
  906POPC   NC3 5713   0.827   5.434   3.508
  906POPC   PO4 5714   0.932   5.195   3.794
  906POPC   GL1 5715   0.931   5.097   4.215
  906POPC   GL2 5716   1.225   5.101   4.260
  906POPC   C1A 5717   0.893   4.781   4.538
  906POPC   D2A 5718   0.816   4.336   4.445
  906POPC   C3A 5719   0.809   4.031   4.748
  906POPC   C4A 5720   0.981   4.071   5.147
  906POPC   C1B 5721   1.444   5.394   4.558
  906POPC   C2B 5722   1.461   5.313   5.043
  906POPC   C3B 5723   1.337   5.413   5.507
  906POPC   C4B 5724   1.187   5.507   5.883
  907POPC   NC3 5725   5.061   1.059   4.140
  907POPC   PO4 5726   5.446   1.029   4.046
  907POPC   GL1 5727   5.363   0.807   4.358
  907POPC   GL2 5728   5.293   0.566   4.280
  907POPC   C1A 5729   5.003   0.822   4.708
  907POPC   D2A 5730   4.629   0.855   5.012
  907POPC   C3A 5731   4.643   0.767   5.431
  907POPC   C4A 5732   4.639   0.606   5.855
  907POPC   C1B 5733   5.347   0.381   4.722
  907POPC   C2B 5734   5.252   0.539   5.121
  907POPC   C3B 5735   5.110   0.730   5.538
  907POPC   C4B 5736   4.864   1.109   5.702
  908POPC   NC3 5737   8.912  10.198   4.121
  908POPC   PO4 5738   8.579  10.226   3.926
  908POPC   GL1 5739   8.379  10.472   4.185
  908POPC   GL2 5740   8.562  10.727   4.294
  908POPC   C1A 5741   8.432  10.345   4.605
  908POPC   D2A 5742   8.258  10.237   5.037
  908POPC   C3A 5743   8.392   9.852   5.174
  908POPC   C4A 5744   8.456   9.482   5.393
  908POPC   C1B 5745   8.526  10.966   4.699
  908POPC   C2B 5746   8.386  10.712   5.097
  908POPC   C3B 5747   8.210  10.520   5.418
  908POPC   C4B 5748   8.314  10.423   5.898
  909POPC   NC3 5749   5.057  13.633   3.836
  909POPC   PO4 5750   5.309  13.467   4.145
  909POPC   GL1 5751   5.264  13.455   4.569
  909POPC   GL2 5752   5.420  13.226   4.684
  909POPC   C1A 5753   5.006  13.454   4.967
  909POPC   D2A 5754   4.589  13.374   5.171
  909POPC   C3A 5755   4.452  13.538   5.588
  909POPC   C4A 5756   4.366  13.961   5.751
  909POPC   C1B 5757   5.450  12.959   5.104
  909POPC   C2B 5758   5.290  12.758   5.506
  909POPC   C3B 5759   5.035  12.550   5.854
  909POPC   C4B 5760   4.705  12.777   6.123
  910POPC   NC3 5761  13.283  13.467   4.020
  910POPC   PO4 5762  12.924  13.426   4.082
  910POPC   GL1 5763  13.049  13.545   4.455
  910POPC   GL2 5764  13.304  13.402   4.520
  910POPC   C1A 5765  12.927  13.814   4.840
  910POPC   D2A 5766  12.946  13.920   5.295
  910POPC   C3A 5767  12.802  14.302   5.463
  910POPC   C4A 5768  12.562  14.607   5.688
  910POPC   C1B 5769  13.783  13.535   4.659
  910POPC   C2B 5770  13.854  13.583   5.100
  910POPC   C3B 5771  14.023  13.530   5.528
  910POPC   C4B 5772  13.943  13.542   5.967
  911POPC   NC3 5773   7.714   2.191   4.428
  911POPC   PO4 5774   7.742   1.827   4.587
  911POPC   GL1 5775   7.832   1.425   4.757
  911POPC   GL2 5776   8.155   1.535   4.752
  911POPC   C1A 5777   8.002   1.091   5.024
  911POPC   D2A 5778   7.965   0.888   5.450
  911POPC   C3A 5779   7.641   0.604   5.525
  911POPC   C4A 5780   7.504   0.150   5.564
  911POPC   C1B 5781   8.490   1.319   4.960
  911POPC   C2B 5782   8.567   1.182   5.400
  911POPC   C3B 5783   8.383   1.027   5.809
  911POPC   C4B 5784   7.942   1.074   5.950
  912POPC   NC3 5785  12.406  10.008   4.286
  912POPC   PO4 5786  12.314   9.792   4.623
  912POPC   GL1 5787  12.551   9.889   4.987
  912POPC   GL2 5788  12.458   9.960   5.257
  912POPC   C1A 5789  12.858  10.269   5.049
  912POPC   D2A 5790  13.080  10.508   5.358
  912POPC   C3A 5791  12.877  10.936   5.435
  912POPC   C4A 5792  12.889  11.336   5.645
  912POPC   C1B 5793  12.348   9.975   5.689
  912POPC   C2B 5794  12.497  10.074   6.109
  912POPC   C3B 5795  12.793  10.300   6.433
  912POPC   C4B 5796  13.136  10.339   6.691
  913POPC   NC3 5797  10.228  11.030   4.609
  913POPC   PO4 5798  10.463  11.260   4.402
  913POPC   GL1 5799  10.577  11.206   4.843
  913POPC   GL2 5800  10.476  11.512   4.869
  913POPC   C1A 5801  10.563  11.019   5.271
  913POPC   D2A 5802  10.582  10.952   5.709
  913POPC   C3A 5803  10.584  11.434   5.820
  913POPC   C4A 5804  10.526  11.838   6.004
  913POPC   C1B 5805  10.381  11.516   5.355
  913POPC   C2B 5806  10.103  11.732   5.677
  913POPC   C3B 5807  10.027  12.037   6.087
  913POPC   C4B 5808   9.920  12.452   6.241
  914POPC   NC3 5809  10.882   6.090   4.441
  914POPC   PO4 5810  10.691   5.769   4.402
  914POPC   GL1 5811  10.459   5.766   4.663
  914POPC   GL2 5812  10.414   6.022   4.857
  914POPC   C1A 5813  10.477   5.580   5.149
  914POPC   D2A 5814  10.722   5.209   5.216
  914POPC   C3A 5815  10.849   4.876   5.562
  914POPC   C4A 5816  10.999   5.009   5.996
  914POPC   C1B 5817  10.463   6.051   5.329
  914POPC   C2B 5818  10.398   5.740   5.764
  914POPC   C3B 5819  10.542   5.646   6.130
  914POPC   C4B 5820  10.602   5.631   6.621
  915POPC   NC3 5821   8.066  13.705   3.586
  915POPC   PO4 5822   7.833  13.995   3.786
  915POPC   GL1 5823   7.753  13.825   4.192
  915POPC   GL2 5824   7.459  13.784   4.274
  915POPC   C1A 5825   7.747  13.383   4.366
  915POPC   D2A 5826   7.662  13.064   4.737
  915POPC   C3A 5827   7.815  12.689   4.669
  915POPC   C4A 5828   8.109  12.392   4.757
  915POPC   C1B 5829   7.705  13.720   4.701
  915POPC   C2B 5830   7.704  13.749   5.138
  915POPC   C3B 5831   7.662  13.573   5.583
  915POPC   C4B 5832   7.679  13.416   6.045
  916POPC   NC3 5833   7.986  11.290   3.435
  916POPC   PO4 5834   7.856  11.414   3.820
  916POPC   GL1 5835   7.996  11.349   4.185
  916POPC   GL2 5836   7.848  11.440   4.438
  916POPC   C1A 5837   8.051  10.970   4.401
  916POPC   D2A 5838   8.041  10.639   4.695
  916POPC   C3A 5839   7.781  10.505   5.015
  916POPC   C4A 5840   7.686  10.121   5.246
  916POPC   C1B 5841   7.610  11.546   4.823
  916POPC   C2B 5842   7.576  11.532   5.279
  916POPC   C3B 5843   7.460  11.688   5.733
  916POPC   C4B 5844   7.355  11.671   6.134
  917POPC   NC3 5845  13.106   1.875   3.707
  917POPC   PO4 5846  13.021   2.202   3.929
  917POPC   GL1 5847  12.947   1.959   4.201
  917POPC   GL2 5848  13.217   1.791   4.266
  917POPC   C1A 5849  12.956   1.999   4.646
  917POPC   D2A 5850  12.627   2.150   4.955
  917POPC   C3A 5851  12.528   1.890   5.291
  917POPC   C4A 5852  12.433   1.602   5.646
  917POPC   C1B 5853  13.047   1.457   4.567
  917POPC   C2B 5854  12.737   1.423   4.956
  917POPC   C3B 5855  12.827   1.453   5.388
  917POPC   C4B 5856  12.878   1.404   5.831
  918POPC   NC3 5857  12.902  12.131   4.225
  918POPC   PO4 5858  13.172  12.096   3.971
  918POPC   GL1 5859  13.366  12.289   4.298
  918POPC   GL2 5860  13.357  12.139   4.541
  918POPC   C1A 5861  13.520  12.596   4.580
  918POPC   D2A 5862  13.669  13.054   4.665
  918POPC   C3A 5863  13.462  13.268   5.020
  918POPC   C4A 5864  13.420  13.221   5.466
  918POPC   C1B 5865  13.478  12.182   4.926
  918POPC   C2B 5866  13.608  12.273   5.336
  918POPC   C3B 5867  13.510  12.213   5.768
  918POPC   C4B 5868  13.684  12.435   6.156
  919POPC   NC3 5869  13.024  10.622   4.239
  919POPC   PO4 5870  12.746  10.388   4.186
  919POPC   GL1 5871  12.683  10.482   4.599
  919POPC   GL2 5872  12.464  10.277   4.685
  919POPC   C1A 5873  12.911  10.724   4.925
  919POPC   D2A 5874  13.273  10.930   5.042
  919POPC   C3A 5875  13.359  10.859   5.492
  919POPC   C4A 5876  13.351  10.642   5.947
  919POPC   C1B 5877  12.416  10.491   5.099
  919POPC   C2B 5878  12.480  10.461   5.588
  919POPC   C3B 5879  12.385  10.567   6.055
  919POPC   C4B 5880  12.025  10.580   6.383
  920POPC   NC3 5881   4.564  12.246   4.684
  920POPC   PO4 5882   4.852  12.332   4.431
  920POPC   GL1 5883   4.688  12.665   4.645
  920POPC   GL2 5884   4.420  12.768   4.644
  920POPC   C1A 5885   4.602  12.784   5.075
  920POPC   D2A 5886   4.167  12.831   5.292
  920POPC   C3A 5887   4.058  13.273   5.413
  920POPC   C4A 5888   3.983  13.572   5.773
  920POPC   C1B 5889   4.178  12.463   4.948
  920POPC   C2B 5890   4.371  12.100   5.102
  920POPC   C3B 5891   4.353  11.738   5.347
  920POPC   C4B 5892   4.297  11.332   5.536
  921POPC   NC3 5893   1.961  13.114   3.709
  921POPC   PO4 5894   1.866  12.755   3.809
  921POPC   GL1 5895   2.019  12.566   4.061
  921POPC   GL2 5896   1.802  12.456   4.225
  921POPC   C1A 5897   2.390  12.577   4.382
  921POPC   D2A 5898   2.470  12.526   4.798
  921POPC   C3A 5899   2.766  12.168   4.808
  921POPC   C4A 5900   2.748  11.842   5.140
  921POPC   C1B 5901   1.860  12.626   4.633
  921POPC   C2B 5902   2.102  12.673   5.110
  921POPC   C3B 5903   2.189  12.549   5.493
  921POPC   C4B 5904   2.584  12.508   5.686
  922POPC   NC3 5905   9.879   3.767   4.286
  922POPC   PO4 5906  10.146   3.949   4.075
  922POPC   GL1 5907  10.286   3.891   4.424
  922POPC   GL2 5908  10.190   4.068   4.593
  922POPC   C1A 5909  10.247   3.643   4.790
  922POPC   D2A 5910  10.266   3.420   5.104
  922POPC   C3A 5911  10.541   3.519   5.485
  922POPC   C4A 5912  10.608   3.813   5.828
  922POPC   C1B 5913  10.136   4.081   5.093
  922POPC   C2B 5914  10.101   3.889   5.532
  922POPC   C3B 5915  10.233   4.021   6.009
  922POPC   C4B 5916  10.441   4.102   6.393
  923POPC   NC3 5917  13.222   4.126   4.331
  923POPC   PO4 5918  13.158   3.732   4.258
  923POPC   GL1 5919  13.238   3.757   4.629
  923POPC   GL2 5920  13.483   3.815   4.638
  923POPC   C1A 5921  13.019   3.473   4.898
  923POPC   D2A 5922  12.984   3.505   5.379
  923POPC   C3A 5923  13.228   3.283   5.674
  923POPC   C4A 5924  13.565   2.887   5.667
  923POPC   C1B 5925  13.782   4.021   4.966
  923POPC   C2B 5926  14.241   4.083   5.117
  923POPC   C3B 5927  14.568   4.314   5.399
  923POPC   C4B 5928  14.881   4.363   5.723
  924POPC   NC3 5929   3.559   8.407   3.541
  924POPC   PO4 5930   3.737   8.670   3.808
  924POPC   GL1 5931   3.706   8.803   4.324
  924POPC   GL2 5932   3.517   8.690   4.342
  924POPC   C1A 5933   4.030   8.833   4.657
  924POPC   D2A 5934   4.167   9.161   4.985
  924POPC   C3A 5935   3.911   9.440   5.292
  924POPC   C4A 5936   3.779   9.221   5.661
  924POPC   C1B 5937   3.571   8.771   4.790
  924POPC   C2B 5938   3.873   8.834   5.142
  924POPC   C3B 5939   4.146   8.901   5.464
  924POPC   C4B 5940   4.554   8.951   5.707
  925POPC   NC3 5941   2.745  13.530   4.034
  925POPC   PO4 5942   2.528  13.845   4.090
  925POPC   GL1 5943   2.576  14.072   4.510
  925POPC   GL2 5944   2.696  13.785   4.524
  925POPC   C1A 5945   2.715  14.123   4.974
  925POPC   D2A 5946   2.781  13.986   5.408
  925POPC   C3A 5947   2.476  13.864   5.739
  925POPC   C4A 5948   2.115  13.507   5.719
  925POPC   C1B 5949   2.622  13.506   4.914
  925POPC   C2B 5950   2.619  13.448   5.360
  925POPC   C3B 5951   2.481  13.075   5.665
  925POPC   C4B 5952   2.401  12.907   6.080
  926POPC   NC3 5953  10.329   0.427   4.415
  926POPC   PO4 5954  10.662   0.300   4.246
  926POPC   GL1 5955  11.064   0.193   4.486
  926POPC   GL2 5956  11.015   0.419   4.654
  926POPC   C1A 5957  11.405   0.025   4.774
  926POPC   D2A 5958  11.570  -0.092   5.207
  926POPC   C3A 5959  11.609  -0.239   5.661
  926POPC   C4A 5960  11.821  -0.098   6.058
  926POPC   C1B 5961  10.698   0.344   4.927
  926POPC   C2B 5962  10.769   0.461   5.351
  926POPC   C3B 5963  10.536   0.566   5.769
  926POPC   C4B 5964  10.272   0.473   6.147
  927POPC   NC3 5965   0.795  11.102   4.088
  927POPC   PO4 5966   1.076  11.235   3.834
  927POPC   GL1 5967   1.103  11.396   4.229
  927POPC   GL2 5968   0.960  11.519   4.412
  927POPC   C1A 5969   1.455  11.562   4.525
  927POPC   D2A 5970   1.851  11.750   4.655
  927POPC   C3A 5971   1.892  11.775   5.112
  927POPC   C4A 5972   1.913  11.819   5.568
  927POPC   C1B 5973   0.856  11.251   4.773
  927POPC   C2B 5974   0.816  11.333   5.192
  927POPC   C3B 5975   0.997  11.545   5.513
  927POPC   C4B 5976   1.162  11.460   5.929
  928POPC   NC3 5977  11.576   5.129   3.822
  928POPC   PO4 5978  11.648   4.761   3.945
  928POPC   GL1 5979  11.822   4.537   4.168
  928POPC   GL2 5980  12.106   4.524   4.174
  928POPC   C1A 5981  12.041   4.662   4.581
  928POPC   D2A 5982  12.140   4.766   5.010
  928POPC   C3A 5983  12.447   4.961   5.243
  928POPC   C4A 5984  12.566   5.169   5.636
  928POPC   C1B 5985  12.473   4.362   4.419
  928POPC   C2B 5986  12.390   4.324   4.882
  928POPC   C3B 5987  12.293   4.240   5.329
  928POPC   C4B 5988  12.415   4.080   5.741
  929POPC   NC3 5989   9.774  13.823   3.855
  929POPC   PO4 5990  10.033  13.776   4.139
  929POPC   GL1 5991  10.156  13.949   4.523
  929POPC   GL2 5992  10.074  13.720   4.637
  929POPC   C1A 5993  10.027  14.314   4.822
  929POPC   D2A 5994   9.999  14.419   5.264
  929POPC   C3A 5995   9.981  14.336   5.713
  929POPC   C4A 5996   9.887  14.728   6.014
  929POPC   C1B 5997  10.195  13.926   5.025
  929POPC   C2B 5998  10.319  14.135   5.445
  929POPC   C3B 5999  10.604  14.064   5.807
  929POPC   C4B 6000  10.713  14.228   6.236
  930POPC   NC3 6001  12.201   6.161   4.049
  930POPC   PO4 6002  11.861   6.246   4.185
  930POPC   GL1 6003  11.911   6.436   4.517
  930POPC   GL2 6004  12.208   6.309   4.502
  930POPC   C1A 6005  12.026   6.423   4.967
  930POPC   D2A 6006  11.920   6.120   5.290
  930POPC   C3A 6007  12.008   6.478   5.528
  930POPC   C4A 6008  12.206   6.545   5.911
  930POPC   C1B 6009  12.604   6.509   4.581
  930POPC   C2B 6010  12.877   6.850   4.831
  930POPC   C3B 6011  12.987   6.898   5.279
  930POPC   C4B 6012  13.196   7.066   5.651
  931POPC   NC3 6013  10.106   1.191   4.202
  931POPC   PO4 6014   9.954   0.852   4.366
  931POPC   GL1 6015  10.329   0.928   4.584
  931POPC   GL2 6016  10.291   0.774   4.820
  931POPC   C1A 6017  10.389   1.245   4.971
  931POPC   D2A 6018  10.180   1.545   5.281
  931POPC   C3A 6019   9.998   1.415   5.611
  931POPC   C4A 6020   9.610   1.612   5.732
  931POPC   C1B 6021  10.398   0.762   5.238
  931POPC   C2B 6022  10.675   0.978   5.503
  931POPC   C3B 6023  10.876   0.920   5.883
  931POPC   C4B 6024  11.071   0.496   5.971
  932POPC   NC3 6025  12.586  10.895   4.304
  932POPC   PO4 6026  12.692  11.289   4.419
  932POPC   GL1 6027  12.772  11.376   4.810
  932POPC   GL2 6028  12.622  11.154   4.935
  932POPC   C1A 6029  13.094  11.349   5.196
  932POPC   D2A 6030  13.385  11.372   5.499
  932POPC   C3A 6031  13.392  11.130   5.941
  932POPC   C4A 6032  13.705  10.951   6.175
  932POPC   C1B 6033  12.468  11.336   5.372
  932POPC   C2B 6034  12.381  11.663   5.682
  932POPC   C3B 6035  12.313  11.904   6.070
  932POPC   C4B 6036  12.610  12.155   6.252
  933POPC   NC3 6037   8.001   5.223   4.335
  933POPC   PO4 6038   8.211   5.586   4.299
  933POPC   GL1 6039   8.010   5.553   4.644
  933POPC   GL2 6040   8.101   5.710   4.888
  933POPC   C1A 6041   7.659   5.801   4.833
  933POPC   D2A 6042   7.422   5.694   5.202
  933POPC   C3A 6043   7.285   5.958   5.495
  933POPC   C4A 6044   7.580   6.027   5.750
  933POPC   C1B 6045   7.915   5.769   5.282
  933POPC   C2B 6046   7.781   5.618   5.656
  933POPC   C3B 6047   7.676   5.400   6.047
  933POPC   C4B 6048   7.714   5.356   6.531
  934POPC   NC3 6049   6.354   6.069   3.955
  934POPC   PO4 6050   5.990   6.034   3.910
  934POPC   GL1 6051   5.857   6.220   4.281
  934POPC   GL2 6052   5.978   6.368   4.506
  934POPC   C1A 6053   5.644   5.934   4.598
  934POPC   D2A 6054   5.552   5.884   5.064
  934POPC   C3A 6055   5.578   5.733   5.509
  934POPC   C4A 6056   5.345   5.863   5.922
  934POPC   C1B 6057   5.960   6.269   4.972
  934POPC   C2B 6058   5.844   6.197   5.389
  934POPC   C3B 6059   5.909   5.892   5.782
  934POPC   C4B 6060   6.107   5.506   5.918
  935POPC   NC3 6061   9.859   9.926   4.997
  935POPC   PO4 6062  10.249   9.877   4.895
  935POPC   GL1 6063  10.230   9.758   5.289
  935POPC   GL2 6064  10.378  10.042   5.361
  935POPC   C1A 6065   9.938   9.655   5.664
  935POPC   D2A 6066   9.807   9.805   6.141
  935POPC   C3A 6067   9.659  10.283   6.196
  935POPC   C4A 6068   9.742  10.712   6.174
  935POPC   C1B 6069  10.509   9.706   5.653
  935POPC   C2B 6070  10.297   9.533   5.993
  935POPC   C3B 6071  10.052   9.497   6.426
  935POPC   C4B 6072   9.764   9.612   6.749
  936POPC   NC3 6073   9.864   7.413   4.548
  936POPC   PO4 6074   9.728   7.015   4.456
  936POPC   GL1 6075   9.665   7.022   4.816
  936POPC   GL2 6076   9.929   6.957   4.909
  936POPC   C1A 6077   9.549   7.372   5.090
  936POPC   D2A 6078   9.326   7.334   5.462
  936POPC   C3A 6079   9.546   7.319   5.864
  936POPC   C4A 6080   9.994   7.298   5.849
  936POPC   C1B 6081   9.827   6.976   5.359
  936POPC   C2B 6082   9.956   6.773   5.768
  936POPC   C3B 6083  10.147   6.407   6.073
  936POPC   C4B 6084  10.435   6.154   6.298
  937POPC   NC3 6085   6.284   3.886   4.039
  937POPC   PO4 6086   5.876   3.877   3.900
  937POPC   GL1 6087   5.956   4.237   4.200
  937POPC   GL2 6088   6.086   4.121   4.438
  937POPC   C1A 6089   6.107   4.580   4.542
  937POPC   D2A 6090   5.854   4.961   4.714
  937POPC   C3A 6091   5.986   5.017   5.131
  937POPC   C4A 6092   5.926   5.292   5.508
  937POPC   C1B 6093   5.794   4.088   4.740
  937POPC   C2B 6094   5.812   3.871   5.147
  937POPC   C3B 6095   5.987   3.891   5.529
  937POPC   C4B 6096   6.099   4.152   5.887
  938POPC   NC3 6097   4.830  11.420   3.790
  938POPC   PO4 6098   4.531  11.131   3.912
  938POPC   GL1 6099   4.526  11.060   4.266
  938POPC   GL2 6100   4.636  10.763   4.322
  938POPC   C1A 6101   4.576  11.156   4.692
  938POPC   D2A 6102   4.243  11.147   5.030
  938POPC   C3A 6103   4.245  10.889   5.398
  938POPC   C4A 6104   4.212  10.961   5.869
  938POPC   C1B 6105   5.019  10.838   4.557
  938POPC   C2B 6106   5.363  10.815   4.869
  938POPC   C3B 6107   5.627  10.884   5.227
  938POPC   C4B 6108   5.859  11.104   5.576
  939POPC   NC3 6109  13.641  11.038   4.174
  939POPC   PO4 6110  13.446  10.794   4.018
  939POPC   GL1 6111  13.582  10.571   4.361
  939POPC   GL2 6112  13.578  10.255   4.243
  939POPC   C1A 6113  13.627  10.873   4.688
  939POPC   D2A 6114  13.776  11.065   5.108
  939POPC   C3A 6115  13.827  10.995   5.545
  939POPC   C4A 6116  14.094  11.059   5.900
  939POPC   C1B 6117  13.653  10.145   4.681
  939POPC   C2B 6118  13.824  10.104   5.090
  939POPC   C3B 6119  14.062  10.098   5.505
  939POPC   C4B 6120  14.383  10.328   5.767
  940POPC   NC3 6121   4.113   9.406   3.562
  940POPC   PO4 6122   4.013   9.026   3.625
  940POPC   GL1 6123   3.811   9.127   3.977
  940POPC   GL2 6124   3.486   9.080   4.006
  940POPC   C1A 6125   3.807   9.245   4.472
  940POPC   D2A 6126   3.602   9.255   4.852
  940POPC   C3A 6127   3.447   9.168   5.283
  940POPC   C4A 6128   3.280   9.068   5.725
  940POPC   C1B 6129   3.324   9.129   4.411
  940POPC   C2B 6130   3.129   9.130   4.821
  940POPC   C3B 6131   2.935   9.028   5.219
  940POPC   C4B 6132   2.837   8.853   5.570
  941POPC   NC3 6133   1.999   6.815   4.087
  941POPC   PO4 6134   1.805   6.461   4.172
  941POPC   GL1 6135   1.751   6.153   4.440
  941POPC   GL2 6136   1.445   6.155   4.544
  941POPC   C1A 6137   1.674   5.816   4.775
  941POPC   D2A 6138   1.511   5.796   5.230
  941POPC   C3A 6139   1.119   5.907   5.367
  941POPC   C4A 6140   0.781   5.743   5.595
  941POPC   C1B 6141   1.632   6.244   5.006
  941POPC   C2B 6142   1.430   6.241   5.423
  941POPC   C3B 6143   1.340   5.954   5.865
  941POPC   C4B 6144   1.382   5.810   6.279
  13.95701  13.95701  10.58724
